# Projected DOS for atomic kind B at iteration step i = 0, E(Fermi) =    -0.009195 a.u.
#     MO Eigenvalue [a.u.]      Occupation                 s                 p                 d
       1         -0.901811        1.000000        0.14977333        0.11464436        0.06459721
       2         -0.901801        1.000000        0.14682506        0.11702759        0.06497504
       3         -0.897784        1.000000        0.13994284        0.11451369        0.07440315
       4         -0.897655        1.000000        0.14043678        0.11456485        0.07388148
       5         -0.847786        1.000000        0.02854473        0.20052884        0.12908770
       6         -0.847685        1.000000        0.02853833        0.20043453        0.12920944
       7         -0.845794        1.000000        0.02950814        0.19948535        0.12978014
       8         -0.845775        1.000000        0.02944828        0.19964626        0.12972028
       9         -0.843885        1.000000        0.02780380        0.20095476        0.12954995
      10         -0.843757        1.000000        0.02779805        0.20098851        0.12945448
      11         -0.843250        1.000000        0.02943471        0.19805368        0.12997927
      12         -0.843025        1.000000        0.02946468        0.19787228        0.13001935
      13         -0.694450        1.000000        0.01493858        0.04676914        0.00993910
      14         -0.683858        1.000000        0.01707305        0.04925170        0.01020857
      15         -0.682909        1.000000        0.00966221        0.03654047        0.01168512
      16         -0.681753        1.000000        0.01661477        0.04858495        0.01025039
      17         -0.680067        1.000000        0.01088713        0.04219267        0.01379406
      18         -0.677894        1.000000        0.01177266        0.04198860        0.01214912
      19         -0.594708        1.000000        0.01543391        0.04232326        0.01048523
      20         -0.585415        1.000000        0.00429950        0.01538777        0.00946047
      21         -0.582666        1.000000        0.01357369        0.03533879        0.00991550
      22         -0.582060        1.000000        0.01901081        0.04853998        0.01258337
      23         -0.579510        1.000000        0.02214620        0.05487719        0.01194116
      24         -0.578707        1.000000        0.02268486        0.05965939        0.01446854
      25         -0.578219        1.000000        0.00466542        0.01848820        0.00990637
      26         -0.576511        1.000000        0.01299814        0.03916959        0.01017176
      27         -0.575341        1.000000        0.00255173        0.01368420        0.00883678
      28         -0.574435        1.000000        0.00265326        0.01377285        0.00952346
      29         -0.574372        1.000000        0.00981485        0.03292372        0.01078698
      30         -0.573551        1.000000        0.01624188        0.05504750        0.01465361
      31         -0.464985        1.000000        0.06166355        0.05084311        0.00388812
      32         -0.460529        1.000000        0.07038388        0.05011700        0.00319934
      33         -0.458210        1.000000        0.07299887        0.05101788        0.00291045
      34         -0.458113        1.000000        0.07336217        0.05132811        0.00282612
      35         -0.445350        1.000000        0.01475638        0.03259394        0.01249598
      36         -0.442423        1.000000        0.00364094        0.02989283        0.01313638
      37         -0.434948        1.000000        0.00740909        0.03945317        0.01353323
      38         -0.433555        1.000000        0.00833082        0.03693974        0.01417113
      39         -0.432893        1.000000        0.00905277        0.04432419        0.01338654
      40         -0.432487        1.000000        0.00967450        0.04663088        0.01280599
      41         -0.430503        1.000000        0.00358994        0.02375107        0.01813861
      42         -0.430439        1.000000        0.00476881        0.02738059        0.01745688
      43         -0.404898        1.000000        0.11301924        0.06197093        0.01248749
      44         -0.404636        1.000000        0.11560434        0.06076154        0.01210774
      45         -0.403202        1.000000        0.11564134        0.06223738        0.01260565
      46         -0.402294        1.000000        0.11503855        0.06295995        0.01240680
      47         -0.389353        1.000000        0.03820912        0.03346734        0.01227008
      48         -0.387589        1.000000        0.04384387        0.03364442        0.01284947
      49         -0.385993        1.000000        0.03892226        0.03551696        0.01323856
      50         -0.385455        1.000000        0.04037467        0.03417459        0.01353127
      51         -0.363355        1.000000        0.00014442        0.23214223        0.00028354
      52         -0.362842        1.000000        0.00009449        0.23329333        0.00022960
      53         -0.357185        1.000000        0.01665389        0.07722100        0.00771127
      54         -0.353777        1.000000        0.01099404        0.07951134        0.01046887
      55         -0.344607        1.000000        0.00008692        0.23968998        0.00358031
      56         -0.344531        1.000000        0.00009869        0.23958438        0.00358125
      57         -0.321362        1.000000        0.02126735        0.08550709        0.01581030
      58         -0.316595        1.000000        0.01939656        0.10199536        0.01840002
      59         -0.314609        1.000000        0.02246072        0.10307325        0.01598006
      60         -0.314157        1.000000        0.01937503        0.10151797        0.01732032
      61         -0.309868        1.000000        0.00544145        0.12281738        0.04664528
      62         -0.307466        1.000000        0.00411479        0.12708259        0.07399020
      63         -0.304235        1.000000        0.00398866        0.07572205        0.04205535
      64         -0.294888        1.000000        0.00523816        0.07260490        0.01818272
      65         -0.292840        1.000000        0.00975753        0.02925357        0.01678888
      66         -0.290604        1.000000        0.00145331        0.21361572        0.03472519
      67         -0.287880        1.000000        0.00196774        0.13042535        0.02265984
      68         -0.283954        1.000000        0.00512853        0.01917109        0.02947671
      69         -0.282417        1.000000        0.01891631        0.01728128        0.10539581
      70         -0.281920        1.000000        0.01427670        0.01676606        0.07511598
      71         -0.280658        1.000000        0.01208839        0.02518884        0.04647781
      72         -0.280332        1.000000        0.00887271        0.03121334        0.02781050
      73         -0.277827        1.000000        0.00344537        0.02973377        0.01812733
      74         -0.275155        1.000000        0.00031725        0.02133909        0.01041670
      75         -0.272907        1.000000        0.00173894        0.01707070        0.02036687
      76         -0.272759        1.000000        0.00288482        0.01864024        0.02216821
      77         -0.271529        1.000000        0.00205359        0.01089937        0.02042036
      78         -0.263175        1.000000        0.00102043        0.06887080        0.02197445
      79         -0.261139        1.000000        0.00050426        0.15151404        0.03176760
      80         -0.260550        1.000000        0.00049152        0.11107237        0.02944362
      81         -0.259109        1.000000        0.00054760        0.00820758        0.00295293
      82         -0.258806        1.000000        0.00007991        0.05357755        0.01975010
      83         -0.252105        1.000000        0.00120581        0.00981849        0.00206360
      84         -0.250633        1.000000        0.00187268        0.01207279        0.00573558
      85         -0.248447        1.000000        0.00017421        0.00165389        0.00085407
      86         -0.247295        1.000000        0.00046188        0.01422094        0.00114524
      87         -0.246814        1.000000        0.00108621        0.00929646        0.00555997
      88         -0.244734        1.000000        0.00046981        0.01304718        0.00207604
      89         -0.243655        1.000000        0.00098828        0.01726379        0.00646904
      90         -0.242946        1.000000        0.00022759        0.00842517        0.00103418
      91         -0.242161        1.000000        0.00021077        0.01818494        0.00721361
      92         -0.236032        1.000000        0.00288518        0.02570574        0.00832667
      93         -0.228015        1.000000        0.00060996        0.06647429        0.02633743
      94         -0.224318        1.000000        0.05071745        0.08025507        0.04233457
      95         -0.219682        1.000000        0.05818330        0.06213699        0.03978416
      96         -0.218864        1.000000        0.00159445        0.05468814        0.03724434
      97         -0.217079        1.000000        0.01885916        0.16274772        0.01402837
      98         -0.215585        1.000000        0.01245219        0.17462631        0.01197942
      99         -0.214627        1.000000        0.00781846        0.15784099        0.01142820
     100         -0.214463        1.000000        0.01239680        0.17751640        0.00810864
     101         -0.211671        1.000000        0.00118150        0.10909147        0.06243593
     102         -0.204576        1.000000        0.00079490        0.08810409        0.06547849
     103         -0.202852        1.000000        0.00093010        0.08079868        0.04609852
     104         -0.199397        1.000000        0.00160762        0.07626723        0.04559072
     105         -0.196895        1.000000        0.00038980        0.07994567        0.08040640
     106         -0.195081        1.000000        0.00052865        0.06465226        0.07712782
     107         -0.189152        1.000000        0.00065121        0.05750011        0.07700361
     108         -0.186484        1.000000        0.00048037        0.03892076        0.07810117
     109         -0.185949        1.000000        0.00304427        0.04103590        0.05182562
     110         -0.182206        1.000000        0.00151554        0.05915213        0.02357776
     111         -0.180897        1.000000        0.00176570        0.04765648        0.02889311
     112         -0.180830        1.000000        0.00197772        0.06016567        0.02666392
     113         -0.179920        1.000000        0.00201223        0.07809879        0.02594572
     114         -0.179119        1.000000        0.00110217        0.04905532        0.03637269
     115         -0.176221        1.000000        0.00023002        0.01007700        0.04481441
     116         -0.171611        1.000000        0.00412345        0.03180038        0.01799960
     117         -0.169139        1.000000        0.00934863        0.03349563        0.01309036
     118         -0.167772        1.000000        0.02327398        0.05202192        0.01939744
     119         -0.163800        1.000000        0.00294292        0.02536620        0.00939965
     120         -0.163184        1.000000        0.01814942        0.04010682        0.01236681
     121         -0.162357        1.000000        0.03937343        0.07727794        0.01491319
     122         -0.161556        1.000000        0.00339552        0.01087888        0.00607491
     123         -0.161098        1.000000        0.00301802        0.00909465        0.00561436
     124         -0.156102        1.000000        0.01052794        0.07683137        0.06554933
     125         -0.155733        1.000000        0.01098472        0.07417116        0.06593463
     126         -0.155148        1.000000        0.01133227        0.07933853        0.06669189
     127         -0.154453        1.000000        0.01114404        0.07527751        0.06519122
     128         -0.145118        1.000000        0.01392224        0.05520410        0.04178179
     129         -0.137941        1.000000        0.01937489        0.10861682        0.04577905
     130         -0.136010        1.000000        0.00663841        0.04127368        0.01739581
     131         -0.135452        1.000000        0.01763611        0.09864091        0.03841962
     132         -0.134823        1.000000        0.02033665        0.11515312        0.04387016
     133         -0.130509        1.000000        0.00901521        0.05560033        0.04571773
     134         -0.117031        1.000000        0.00098254        0.00623616        0.01257941
     135         -0.111572        1.000000        0.00005972        0.02100422        0.04052450
     136         -0.107885        1.000000        0.00004243        0.00308748        0.00742292
     137         -0.102643        1.000000        0.00004299        0.02562213        0.04577187
     138         -0.096755        1.000000        0.00005284        0.02636101        0.03995439
     139         -0.095481        1.000000        0.00003685        0.01909409        0.03115948
     140         -0.089985        1.000000        0.00001529        0.00519291        0.01573290
     141         -0.086616        1.000000        0.00018137        0.01836551        0.01835552
     142         -0.081685        1.000000        0.00017001        0.00747809        0.02018864
     143         -0.081566        1.000000        0.00005577        0.00305267        0.00689972
     144         -0.009195        1.000000        0.00512550        0.05542965        0.02150305
     145          0.038895        0.000000        0.00055305        0.19289193        0.03848716
     146          0.048652        0.000000        0.00017897        0.23137560        0.03917641
     147          0.048753        0.000000        0.00017266        0.24933664        0.04178248
     148          0.056174        0.000000        0.00086659        0.20596238        0.03178092
     149          0.074727        0.000000        0.00061822        0.05106624        0.02218828
     150          0.077288        0.000000        0.00154765        0.06362586        0.03160446
     151          0.081942        0.000000        0.00093265        0.08964803        0.03354914
     152          0.107111        0.000000        0.00019100        0.00502568        0.00272067
     153          0.107775        0.000000        0.00020833        0.01627560        0.00440399
     154          0.113504        0.000000        0.00006100        0.02846654        0.00391797
     155          0.114429        0.000000        0.00017337        0.00458631        0.00459188
     156          0.120421        0.000000        0.01602873        0.02510768        0.00892565
     157          0.128205        0.000000        0.00233131        0.39191208        0.01837609
     158          0.129182        0.000000        0.00085352        0.48968637        0.01881142
     159          0.137378        0.000000        0.00337358        0.46599646        0.02305752
     160          0.145280        0.000000        0.00323634        0.46385992        0.02014542
     161          0.153560        0.000000        0.09098795        0.09076138        0.08509389
     162          0.156432        0.000000        0.01021079        0.08100237        0.01176997
     163          0.176846        0.000000        0.20021873        0.07830027        0.16020184
     164          0.188846        0.000000        0.00142539        0.31695954        0.00458490
     165          0.197583        0.000000        0.01479351        0.26704170        0.02485340
     166          0.201776        0.000000        0.14802932        0.11663307        0.16458027
     167          0.205226        0.000000        0.00436808        0.33767667        0.01698936
     168          0.205810        0.000000        0.03450083        0.25898116        0.04395001
     169          0.212710        0.000000        0.02538798        0.28795718        0.04192723
     170          0.213449        0.000000        0.00480916        0.36598944        0.01831894
     171          0.220947        0.000000        0.04082009        0.23802964        0.05331370
     172          0.231664        0.000000        0.00927118        0.25098085        0.01897696
     173          0.233880        0.000000        0.02561307        0.20549395        0.05544489
     174          0.236846        0.000000        0.07371276        0.10460011        0.07835070
     175          0.243971        0.000000        0.01878883        0.12778341        0.03934210
     176          0.244114        0.000000        0.01589320        0.06944547        0.01191536
     177          0.249365        0.000000        0.01706942        0.13307503        0.03319684
     178          0.257718        0.000000        0.02079974        0.08549626        0.03534542
     179          0.260118        0.000000        0.05310483        0.10710017        0.06647441
     180          0.263977        0.000000        0.02714236        0.13475440        0.05253171
     181          0.268331        0.000000        0.00728887        0.24052472        0.03354705
     182          0.273860        0.000000        0.00662461        0.14342636        0.02961108
     183          0.278126        0.000000        0.00281282        0.22259155        0.01427657
     184          0.282454        0.000000        0.01669104        0.08460593        0.03902868
     185          0.286437        0.000000        0.00820067        0.06626453        0.03800681
     186          0.290276        0.000000        0.01016738        0.12425475        0.04395809
     187          0.291807        0.000000        0.00892980        0.06411341        0.02002101
     188          0.294358        0.000000        0.01815521        0.09799072        0.05888416
     189          0.295038        0.000000        0.00370219        0.07681922        0.03057425
     190          0.295608        0.000000        0.00254312        0.08059156        0.02555135
     191          0.301628        0.000000        0.00368452        0.08158232        0.02622269
     192          0.306435        0.000000        0.02050406        0.12275413        0.07960606
     193          0.307186        0.000000        0.00884280        0.12842024        0.03521747
     194          0.309225        0.000000        0.03029569        0.07484963        0.03972981
