# Projected DOS for atomic kind C at iteration step i = 0, E(Fermi) =    -0.075693 a.u.
#     MO Eigenvalue [a.u.]      Occupation                 s                 p                 d
       1         -0.902184        1.000000        0.00449856        0.01380091        0.01486385
       2         -0.902135        1.000000        0.00418405        0.01459529        0.01463243
       3         -0.898669        1.000000        0.00364765        0.01371461        0.01725037
       4         -0.898575        1.000000        0.00364596        0.01382332        0.01709618
       5         -0.847446        1.000000        0.00187052        0.00864660        0.01819711
       6         -0.847409        1.000000        0.00176883        0.00884358        0.01819740
       7         -0.846517        1.000000        0.00181333        0.00887365        0.01821534
       8         -0.846458        1.000000        0.00182302        0.00887593        0.01819960
       9         -0.844568        1.000000        0.00185673        0.00881970        0.01832408
      10         -0.844471        1.000000        0.00181833        0.00886053        0.01838754
      11         -0.843367        1.000000        0.00175297        0.00887944        0.01824494
      12         -0.843301        1.000000        0.00175121        0.00887385        0.01821014
      13         -0.684130        1.000000        0.60148605        0.15086462        0.03660629
      14         -0.682704        1.000000        0.60133410        0.15044137        0.03570885
      15         -0.681947        1.000000        0.61322946        0.15203399        0.03563565
      16         -0.678211        1.000000        0.58942852        0.15178481        0.08489247
      17         -0.676788        1.000000        0.58832780        0.15081054        0.08510995
      18         -0.676099        1.000000        0.59560324        0.15298973        0.08566318
      19         -0.580885        1.000000        0.43106155        0.24928347        0.10943048
      20         -0.579479        1.000000        0.42628222        0.24583073        0.11310448
      21         -0.578338        1.000000        0.43236002        0.24701249        0.11512291
      22         -0.578143        1.000000        0.45764770        0.25708396        0.11851703
      23         -0.576023        1.000000        0.43335322        0.24702982        0.11713040
      24         -0.575804        1.000000        0.45599757        0.25739344        0.12017421
      25         -0.574341        1.000000        0.45814146        0.25572801        0.12219729
      26         -0.573791        1.000000        0.45924651        0.25594801        0.12350776
      27         -0.573537        1.000000        0.45369218        0.25682399        0.12279390
      28         -0.573427        1.000000        0.46139659        0.25613715        0.12578654
      29         -0.573000        1.000000        0.46365432        0.25579001        0.12833885
      30         -0.570915        1.000000        0.45091795        0.25479577        0.12652363
      31         -0.458063        1.000000        0.15695122        0.36990968        0.02163630
      32         -0.457489        1.000000        0.16218311        0.37234020        0.02236716
      33         -0.457470        1.000000        0.15954265        0.37151799        0.02271128
      34         -0.456407        1.000000        0.16115733        0.37080408        0.02224725
      35         -0.437757        1.000000        0.22501006        0.50704608        0.01313729
      36         -0.437471        1.000000        0.22553638        0.50713078        0.01334021
      37         -0.430255        1.000000        0.25938618        0.53194373        0.02080471
      38         -0.430097        1.000000        0.25980078        0.53206812        0.02172367
      39         -0.429705        1.000000        0.25666891        0.53075185        0.02508533
      40         -0.429685        1.000000        0.25761820        0.53061629        0.02560545
      41         -0.429521        1.000000        0.25614043        0.52984482        0.02392613
      42         -0.428118        1.000000        0.25804786        0.53328984        0.02273985
      43         -0.403886        1.000000        0.02886566        0.11480989        0.05896931
      44         -0.403503        1.000000        0.02987592        0.11410171        0.05685666
      45         -0.403053        1.000000        0.02963930        0.11220193        0.05822121
      46         -0.402030        1.000000        0.03168408        0.11464446        0.05662269
      47         -0.385656        1.000000        0.08879872        0.42245392        0.02470282
      48         -0.384841        1.000000        0.09192355        0.41480578        0.02923652
      49         -0.384615        1.000000        0.09425557        0.41847422        0.02870035
      50         -0.384502        1.000000        0.09505254        0.42479434        0.02416473
      51         -0.363359        1.000000        0.00269806        0.11377829        0.02827213
      52         -0.362868        1.000000        0.00287751        0.11361880        0.02733804
      53         -0.354046        1.000000        0.02183101        0.54004307        0.04247762
      54         -0.351619        1.000000        0.02069529        0.53563876        0.05214167
      55         -0.344280        1.000000        0.03485814        0.03303119        0.03810412
      56         -0.343725        1.000000        0.03499853        0.03303847        0.03676439
      57         -0.314233        1.000000        0.03732483        0.42868526        0.06034362
      58         -0.314115        1.000000        0.03858019        0.42670385        0.05699221
      59         -0.313555        1.000000        0.04066076        0.42523860        0.05525982
      60         -0.312892        1.000000        0.03885203        0.43855693        0.06043509
      61         -0.307364        1.000000        0.01297001        0.10238022        0.02548968
      62         -0.306880        1.000000        0.01149974        0.10882981        0.02305336
      63         -0.295861        1.000000        0.00001710        0.11703580        0.01796944
      64         -0.293020        1.000000        0.00001705        0.05177565        0.03323298
      65         -0.283796        1.000000        0.12209090        0.25576469        0.16612189
      66         -0.283498        1.000000        0.13880267        0.28243666        0.18963520
      67         -0.280989        1.000000        0.03025476        0.15042381        0.03755730
      68         -0.280313        1.000000        0.04737416        0.17531356        0.06148442
      69         -0.277222        1.000000        0.11337838        0.44178223        0.14853064
      70         -0.276630        1.000000        0.10413808        0.51208302        0.13557338
      71         -0.276459        1.000000        0.10666433        0.50064646        0.13899817
      72         -0.275867        1.000000        0.11488465        0.45394611        0.14839019
      73         -0.270071        1.000000        0.03805473        0.72566459        0.05965794
      74         -0.269785        1.000000        0.02413478        0.77628579        0.04150571
      75         -0.269316        1.000000        0.03473776        0.74069150        0.05420462
      76         -0.269039        1.000000        0.02457256        0.78701569        0.04120069
      77         -0.261413        1.000000        0.00000495        0.10840098        0.02251260
      78         -0.259269        1.000000        0.00000319        0.04339055        0.01724299
      79         -0.257962        1.000000        0.00021298        0.84193640        0.00215473
      80         -0.257439        1.000000        0.00027641        0.84263269        0.00236367
      81         -0.247056        1.000000        0.00493323        0.66683979        0.05082895
      82         -0.244409        1.000000        0.00597506        0.66740496        0.05174239
      83         -0.244090        1.000000        0.00413477        0.65987741        0.05783174
      84         -0.243515        1.000000        0.00374067        0.66618112        0.05665343
      85         -0.240863        1.000000        0.00414792        0.68172851        0.05059212
      86         -0.240571        1.000000        0.00321235        0.67658819        0.05551439
      87         -0.235012        1.000000        0.00000056        0.62942555        0.03613632
      88         -0.230287        1.000000        0.00000334        0.60388351        0.04193652
      89         -0.219336        1.000000        0.00496218        0.57110526        0.03101975
      90         -0.217478        1.000000        0.00475086        0.57498416        0.03426444
      91         -0.216527        1.000000        0.00017550        0.67985976        0.07459223
      92         -0.214887        1.000000        0.01493265        0.43481453        0.03154606
      93         -0.214729        1.000000        0.01495597        0.43433589        0.03134771
      94         -0.213566        1.000000        0.01566160        0.43417396        0.03059684
      95         -0.213058        1.000000        0.01465932        0.42678324        0.03254141
      96         -0.212180        1.000000        0.00028330        0.10646222        0.03615915
      97         -0.204859        1.000000        0.00000786        0.19647435        0.03476102
      98         -0.200094        1.000000        0.00001089        0.13064326        0.01664468
      99         -0.196720        1.000000        0.00000306        0.07752968        0.02244454
     100         -0.194729        1.000000        0.00000536        0.18310892        0.04787084
     101         -0.194649        1.000000        0.00000389        0.26692578        0.01714881
     102         -0.188588        1.000000        0.00000102        0.06187331        0.01609093
     103         -0.185768        1.000000        0.00000657        0.15415259        0.03487552
     104         -0.180211        1.000000        0.00276466        0.18019465        0.03748056
     105         -0.179717        1.000000        0.00244095        0.16686949        0.03475105
     106         -0.179554        1.000000        0.00262162        0.16908675        0.03523576
     107         -0.178712        1.000000        0.00230960        0.16956326        0.03541901
     108         -0.175140        1.000000        0.00000289        0.72250206        0.05722187
     109         -0.172710        1.000000        0.00000078        0.71830461        0.06645437
     110         -0.172145        1.000000        0.00000107        0.58483907        0.05782837
     111         -0.163011        1.000000        0.00054976        0.56697361        0.12705843
     112         -0.162994        1.000000        0.00054215        0.57542778        0.12910978
     113         -0.162665        1.000000        0.00048774        0.58292380        0.13125419
     114         -0.162366        1.000000        0.00045387        0.57957130        0.12980238
     115         -0.160872        1.000000        0.00093540        0.60847112        0.12006366
     116         -0.160584        1.000000        0.00145083        0.59905631        0.11690443
     117         -0.159787        1.000000        0.00035420        0.61576724        0.13645647
     118         -0.159273        1.000000        0.00047890        0.61972087        0.13596830
     119         -0.154526        1.000000        0.00651165        0.19187168        0.01124704
     120         -0.154503        1.000000        0.00703280        0.18170483        0.00893488
     121         -0.154076        1.000000        0.00646234        0.18644833        0.01046013
     122         -0.153615        1.000000        0.00710767        0.18590085        0.00957161
     123         -0.134927        1.000000        0.00690521        0.47363791        0.08902726
     124         -0.134881        1.000000        0.00674370        0.47616540        0.08951037
     125         -0.134772        1.000000        0.00669651        0.47679612        0.08958179
     126         -0.133589        1.000000        0.00665753        0.47159379        0.08814658
     127         -0.118392        1.000000        0.00000067        0.67243981        0.14115455
     128         -0.113974        1.000000        0.00000169        0.68358377        0.13832687
     129         -0.111119        1.000000        0.00000008        0.73815171        0.14825409
     130         -0.099765        1.000000        0.00000011        0.73215413        0.12927853
     131         -0.096351        1.000000        0.00000014        0.71799075        0.11842054
     132         -0.093816        1.000000        0.00000035        0.74662461        0.13073734
     133         -0.091444        1.000000        0.00000032        0.78218224        0.13861395
     134         -0.089964        1.000000        0.00000015        0.78169247        0.12576313
     135         -0.089033        1.000000        0.00000016        0.76441795        0.12303049
     136         -0.081862        1.000000        0.00000047        0.79210318        0.13179010
     137         -0.077365        1.000000        0.00000047        0.78119768        0.12646615
     138         -0.075693        1.000000        0.00000004        0.81926016        0.13110931
     139          0.046933        0.000000        0.00000070        0.38102817        0.21998229
     140          0.047400        0.000000        0.00000026        0.42299244        0.20515344
     141          0.051275        0.000000        0.00000016        0.38806590        0.20606130
     142          0.053206        0.000000        0.00000061        0.43303888        0.19523388
     143          0.078898        0.000000        0.00000031        0.52038592        0.21848397
     144          0.082488        0.000000        0.00000030        0.57190318        0.21182163
     145          0.107008        0.000000        0.00000040        0.63722478        0.24302057
     146          0.108351        0.000000        0.00000046        0.64080385        0.24111868
     147          0.109430        0.000000        0.00000009        0.67738897        0.23459859
     148          0.115661        0.000000        0.00000034        0.64646555        0.23447883
     149          0.116685        0.000000        0.00000006        0.66710745        0.23478280
     150          0.116793        0.000000        0.00000014        0.67175197        0.24055056
     151          0.129848        0.000000        0.00000053        0.18035946        0.13249927
     152          0.141555        0.000000        0.00000664        0.24855393        0.13304876
     153          0.141771        0.000000        0.00000379        0.23464396        0.12679336
     154          0.148616        0.000000        0.00000081        0.25961562        0.11944562
     155          0.177349        0.000000        0.01681057        0.04746811        0.08167700
     156          0.186333        0.000000        0.01298285        0.06933739        0.03801076
     157          0.196720        0.000000        0.00004558        0.26574767        0.10404506
     158          0.203270        0.000000        0.00001541        0.35571785        0.13223045
     159          0.209786        0.000000        0.00000895        0.34693323        0.14586263
     160          0.215190        0.000000        0.00000684        0.36345963        0.14629782
     161          0.219226        0.000000        0.00023822        0.29959793        0.15693838
     162          0.219340        0.000000        0.00007269        0.29743931        0.16044385
     163          0.220082        0.000000        0.05513659        0.05242277        0.14482667
     164          0.226384        0.000000        0.06272244        0.05079207        0.16141272
     165          0.237340        0.000000        0.01834224        0.11089444        0.09935250
     166          0.242462        0.000000        0.03930153        0.09480351        0.17011879
     167          0.243812        0.000000        0.00532042        0.18259111        0.12038976
     168          0.244086        0.000000        0.01848451        0.13733805        0.09712582
     169          0.246351        0.000000        0.02222198        0.08879628        0.29392628
     170          0.260817        0.000000        0.06375356        0.07801002        0.24568379
     171          0.266474        0.000000        0.03641972        0.06694981        0.38337619
     172          0.268883        0.000000        0.07164855        0.06976184        0.21637460
     173          0.273843        0.000000        0.00003725        0.25927036        0.12136841
     174          0.284104        0.000000        0.03580184        0.08925505        0.36456802
     175          0.288101        0.000000        0.08686829        0.08400986        0.15779158
     176          0.291702        0.000000        0.08524797        0.08334532        0.23940713
     177          0.296840        0.000000        0.00084238        0.63789020        0.10986706
     178          0.297051        0.000000        0.02936386        0.12300670        0.21867767
     179          0.297803        0.000000        0.00002420        0.64866395        0.11260461
     180          0.298543        0.000000        0.02064618        0.32484198        0.12911383
     181          0.298674        0.000000        0.06413294        0.16626387        0.21348354
     182          0.303594        0.000000        0.03523735        0.13007734        0.25719897
     183          0.307091        0.000000        0.00046097        0.64514752        0.09674325
     184          0.308976        0.000000        0.02137464        0.30516432        0.18371717
     185          0.309295        0.000000        0.01387094        0.41147194        0.15533781
     186          0.311272        0.000000        0.10302566        0.07538086        0.32060619
     187          0.312283        0.000000        0.04696537        0.11532664        0.29550766
     188          0.317028        0.000000        0.02572555        0.08173302        0.45157873
