# Projected DOS for atomic kind H at iteration step i = 0, E(Fermi) =    -0.075693 a.u.
#     MO Eigenvalue [a.u.]      Occupation                 s                 p
       1         -0.902184        1.000000        0.00234418        0.00565085
       2         -0.902135        1.000000        0.00212085        0.00592555
       3         -0.898669        1.000000        0.00141277        0.00452658
       4         -0.898575        1.000000        0.00141899        0.00456799
       5         -0.847446        1.000000        0.00130347        0.00333520
       6         -0.847409        1.000000        0.00125985        0.00334605
       7         -0.846517        1.000000        0.00120554        0.00318802
       8         -0.846458        1.000000        0.00120577        0.00319167
       9         -0.844568        1.000000        0.00123234        0.00326001
      10         -0.844471        1.000000        0.00121395        0.00324736
      11         -0.843367        1.000000        0.00118632        0.00315978
      12         -0.843301        1.000000        0.00117810        0.00314449
      13         -0.684130        1.000000        0.05189311        0.07072144
      14         -0.682704        1.000000        0.05325580        0.07163369
      15         -0.681947        1.000000        0.05713797        0.06128690
      16         -0.678211        1.000000        0.04187481        0.05898879
      17         -0.676788        1.000000        0.04067394        0.06167867
      18         -0.676099        1.000000        0.04244691        0.05515311
      19         -0.580885        1.000000        0.04153231        0.03958141
      20         -0.579479        1.000000        0.02786067        0.03208063
      21         -0.578338        1.000000        0.03233614        0.03333501
      22         -0.578143        1.000000        0.08411249        0.05494062
      23         -0.576023        1.000000        0.03426297        0.03401186
      24         -0.575804        1.000000        0.06611647        0.04257771
      25         -0.574341        1.000000        0.08044054        0.04931994
      26         -0.573791        1.000000        0.08189270        0.05765479
      27         -0.573537        1.000000        0.05483853        0.03649341
      28         -0.573427        1.000000        0.07130272        0.04487954
      29         -0.573000        1.000000        0.07832092        0.04700581
      30         -0.570915        1.000000        0.03814934        0.03004003
      31         -0.458063        1.000000        0.02030829        0.02040382
      32         -0.457489        1.000000        0.01996321        0.02064412
      33         -0.457470        1.000000        0.01975337        0.02032146
      34         -0.456407        1.000000        0.02064174        0.01997883
      35         -0.437757        1.000000        0.10906332        0.02646796
      36         -0.437471        1.000000        0.10819078        0.02659529
      37         -0.430255        1.000000        0.03880565        0.03224248
      38         -0.430097        1.000000        0.04672303        0.03017555
      39         -0.429705        1.000000        0.11528370        0.02567217
      40         -0.429685        1.000000        0.11506206        0.02587831
      41         -0.429521        1.000000        0.11322664        0.02680564
      42         -0.428118        1.000000        0.10433316        0.02775202
      43         -0.403886        1.000000        0.00621577        0.00272193
      44         -0.403503        1.000000        0.00611270        0.00257669
      45         -0.403053        1.000000        0.00638140        0.00253538
      46         -0.402030        1.000000        0.00664286        0.00249144
      47         -0.385656        1.000000        0.10402191        0.01678024
      48         -0.384841        1.000000        0.09810565        0.01546144
      49         -0.384615        1.000000        0.09903561        0.01483262
      50         -0.384502        1.000000        0.10303988        0.01608602
      51         -0.363359        1.000000        0.00046421        0.00673352
      52         -0.362868        1.000000        0.00060506        0.00632849
      53         -0.354046        1.000000        0.15306338        0.00212062
      54         -0.351619        1.000000        0.14638039        0.00270712
      55         -0.344280        1.000000        0.02382700        0.00240550
      56         -0.343725        1.000000        0.02411659        0.00242450
      57         -0.314233        1.000000        0.11411802        0.00534674
      58         -0.314115        1.000000        0.11385850        0.00573420
      59         -0.313555        1.000000        0.11074032        0.00561277
      60         -0.312892        1.000000        0.11399148        0.00497542
      61         -0.307364        1.000000        0.00143369        0.00400146
      62         -0.306880        1.000000        0.00323504        0.00479561
      63         -0.295861        1.000000        0.00001577        0.01189189
      64         -0.293020        1.000000        0.00003149        0.00510949
      65         -0.283796        1.000000        0.19621110        0.00140968
      66         -0.283498        1.000000        0.22314325        0.00112551
      67         -0.280989        1.000000        0.05926076        0.00255964
      68         -0.280313        1.000000        0.08907876        0.00248357
      69         -0.277222        1.000000        0.20002356        0.00794896
      70         -0.276630        1.000000        0.17709052        0.01030044
      71         -0.276459        1.000000        0.18436688        0.00970389
      72         -0.275867        1.000000        0.20291376        0.00800038
      73         -0.270071        1.000000        0.10582331        0.01714029
      74         -0.269785        1.000000        0.07945578        0.01880369
      75         -0.269316        1.000000        0.09776499        0.01749302
      76         -0.269039        1.000000        0.07407337        0.01946726
      77         -0.261413        1.000000        0.00001340        0.00928359
      78         -0.259269        1.000000        0.00001266        0.00229615
      79         -0.257962        1.000000        0.00052599        0.01949585
      80         -0.257439        1.000000        0.00122196        0.01950447
      81         -0.247056        1.000000        0.22380146        0.00598188
      82         -0.244409        1.000000        0.21960214        0.00646109
      83         -0.244090        1.000000        0.22869414        0.00394968
      84         -0.243515        1.000000        0.22906276        0.00381021
      85         -0.240863        1.000000        0.24742046        0.00565128
      86         -0.240571        1.000000        0.25208494        0.00426001
      87         -0.235012        1.000000        0.00001411        0.04783379
      88         -0.230287        1.000000        0.00003317        0.03698545
      89         -0.219336        1.000000        0.04362119        0.00130809
      90         -0.217478        1.000000        0.04530355        0.00066275
      91         -0.216527        1.000000        0.00049114        0.04514869
      92         -0.214887        1.000000        0.02492065        0.00272551
      93         -0.214729        1.000000        0.02493987        0.00262057
      94         -0.213566        1.000000        0.02599775        0.00247198
      95         -0.213058        1.000000        0.02396914        0.00209676
      96         -0.212180        1.000000        0.00043569        0.00810194
      97         -0.204859        1.000000        0.00003083        0.01051205
      98         -0.200094        1.000000        0.00003226        0.00434796
      99         -0.196720        1.000000        0.00002343        0.00332314
     100         -0.194729        1.000000        0.00000834        0.01197003
     101         -0.194649        1.000000        0.00000757        0.00993801
     102         -0.188588        1.000000        0.00001208        0.00288995
     103         -0.185768        1.000000        0.00006027        0.00745318
     104         -0.180211        1.000000        0.04076633        0.00521735
     105         -0.179717        1.000000        0.03695159        0.00441604
     106         -0.179554        1.000000        0.03795921        0.00502088
     107         -0.178712        1.000000        0.03854760        0.00405789
     108         -0.175140        1.000000        0.00003425        0.02290753
     109         -0.172710        1.000000        0.00001037        0.02553601
     110         -0.172145        1.000000        0.00001368        0.02029270
     111         -0.163011        1.000000        0.19543003        0.00548460
     112         -0.162994        1.000000        0.20309225        0.00460290
     113         -0.162665        1.000000        0.20469387        0.00477806
     114         -0.162366        1.000000        0.19282552        0.00566845
     115         -0.160872        1.000000        0.07203728        0.00605418
     116         -0.160584        1.000000        0.06760594        0.00661609
     117         -0.159787        1.000000        0.22706595        0.00259440
     118         -0.159273        1.000000        0.22458224        0.00242884
     119         -0.154526        1.000000        0.01134353        0.00290987
     120         -0.154503        1.000000        0.00964504        0.00285429
     121         -0.154076        1.000000        0.01255685        0.00287261
     122         -0.153615        1.000000        0.01157302        0.00265062
     123         -0.134927        1.000000        0.05400839        0.00525370
     124         -0.134881        1.000000        0.05511361        0.00491512
     125         -0.134772        1.000000        0.05408491        0.00505615
     126         -0.133589        1.000000        0.05489194        0.00456273
     127         -0.118392        1.000000        0.00000371        0.03932613
     128         -0.113974        1.000000        0.00000394        0.02775172
     129         -0.111119        1.000000        0.00000027        0.06928408
     130         -0.099765        1.000000        0.00000015        0.01681211
     131         -0.096351        1.000000        0.00000012        0.02916583
     132         -0.093816        1.000000        0.00000027        0.02276780
     133         -0.091444        1.000000        0.00000030        0.03267184
     134         -0.089964        1.000000        0.00000009        0.05994765
     135         -0.089033        1.000000        0.00000012        0.04825698
     136         -0.081862        1.000000        0.00000051        0.03546410
     137         -0.077365        1.000000        0.00000087        0.02584832
     138         -0.075693        1.000000        0.00000002        0.04387699
     139          0.046933        0.000000        0.00000038        0.01613390
     140          0.047400        0.000000        0.00000018        0.02106604
     141          0.051275        0.000000        0.00000016        0.01140972
     142          0.053206        0.000000        0.00000067        0.01752835
     143          0.078898        0.000000        0.00000024        0.03102365
     144          0.082488        0.000000        0.00000034        0.02269435
     145          0.107008        0.000000        0.00000013        0.09171991
     146          0.108351        0.000000        0.00000016        0.08436428
     147          0.109430        0.000000        0.00000003        0.07308225
     148          0.115661        0.000000        0.00000015        0.06237223
     149          0.116685        0.000000        0.00000004        0.07880117
     150          0.116793        0.000000        0.00000048        0.06598222
     151          0.129848        0.000000        0.00000078        0.01312689
     152          0.141555        0.000000        0.00000124        0.01072654
     153          0.141771        0.000000        0.00000162        0.01875857
     154          0.148616        0.000000        0.00000067        0.01600214
     155          0.177349        0.000000        0.06010020        0.09442648
     156          0.186333        0.000000        0.01898547        0.07945326
     157          0.196720        0.000000        0.00013179        0.01996549
     158          0.203270        0.000000        0.00001585        0.04689523
     159          0.209786        0.000000        0.00001542        0.02887151
     160          0.215190        0.000000        0.00000844        0.05797375
     161          0.219226        0.000000        0.00027784        0.03239595
     162          0.219340        0.000000        0.00008651        0.04585475
     163          0.220082        0.000000        0.07175006        0.20050009
     164          0.226384        0.000000        0.07461387        0.19113799
     165          0.237340        0.000000        0.06274693        0.24553096
     166          0.242462        0.000000        0.08245644        0.37297580
     167          0.243812        0.000000        0.01191075        0.10642652
     168          0.244086        0.000000        0.07360978        0.28929813
     169          0.246351        0.000000        0.10371792        0.33508108
     170          0.260817        0.000000        0.07532396        0.30012102
     171          0.266474        0.000000        0.02781050        0.18963236
     172          0.268883        0.000000        0.06758200        0.28254341
     173          0.273843        0.000000        0.00007666        0.06538577
     174          0.284104        0.000000        0.04614008        0.23307485
     175          0.288101        0.000000        0.07616156        0.44980820
     176          0.291702        0.000000        0.07796130        0.34183206
     177          0.296840        0.000000        0.00175565        0.09100794
     178          0.297051        0.000000        0.06253624        0.21464452
     179          0.297803        0.000000        0.00002869        0.11969202
     180          0.298543        0.000000        0.02241809        0.13692671
     181          0.298674        0.000000        0.06926574        0.25085888
     182          0.303594        0.000000        0.08913032        0.32175410
     183          0.307091        0.000000        0.00030093        0.07360614
     184          0.308976        0.000000        0.06478863        0.18007455
     185          0.309295        0.000000        0.04147711        0.14716929
     186          0.311272        0.000000        0.05460474        0.18435130
     187          0.312283        0.000000        0.09840914        0.26191835
     188          0.317028        0.000000        0.05446961        0.15945719
