# Projected DOS for atomic kind Zn at iteration step i = 0, E(Fermi) =    -0.009195 a.u.
#     MO Eigenvalue [a.u.]      Occupation                 s                 p                 d                 f
       1         -0.901811        1.000000        0.00021976        0.00001587        0.00013553        0.00000871
       2         -0.901801        1.000000        0.00000715        0.00035635        0.00000571        0.00020634
       3         -0.897784        1.000000        0.00013345        0.00052642        0.00042753        0.00101406
       4         -0.897655        1.000000        0.00015793        0.00043339        0.00049126        0.00082780
       5         -0.847786        1.000000        0.00000555        0.00001391        0.00003012        0.00007103
       6         -0.847685        1.000000        0.00000420        0.00001656        0.00002611        0.00008756
       7         -0.845794        1.000000        0.00004830        0.00005001        0.00003290        0.00004063
       8         -0.845775        1.000000        0.00002744        0.00008013        0.00001939        0.00006392
       9         -0.843885        1.000000        0.00008103        0.00028720        0.00033028        0.00076130
      10         -0.843757        1.000000        0.00007612        0.00029741        0.00030302        0.00078171
      11         -0.843250        1.000000        0.00000342        0.00002787        0.00006731        0.00033449
      12         -0.843025        1.000000        0.00000262        0.00002576        0.00006572        0.00031782
      13         -0.694450        1.000000        0.04024782        0.00006619        0.03175515        0.00000432
      14         -0.683858        1.000000        0.00004010        0.00000448        0.00001799        0.00000042
      15         -0.682909        1.000000        0.00002825        0.05949140        0.00003025        0.00573278
      16         -0.681753        1.000000        0.00006202        0.00000543        0.00003109        0.00000054
      17         -0.680067        1.000000        0.00000011        0.00033319        0.00000012        0.00004803
      18         -0.677894        1.000000        0.00000006        0.00033393        0.00000008        0.00002843
      19         -0.594708        1.000000        0.00000011        0.01657864        0.00003033        0.03682253
      20         -0.585415        1.000000        0.00266495        0.00015927        0.03229343        0.00023686
      21         -0.582666        1.000000        0.00048955        0.02228702        0.00438232        0.02602509
      22         -0.582060        1.000000        0.00438633        0.00332838        0.02717103        0.00390339
      23         -0.579510        1.000000        0.00000057        0.00063478        0.00000231        0.00079338
      24         -0.578707        1.000000        0.00063889        0.00000117        0.00319066        0.00000170
      25         -0.578219        1.000000        0.00000557        0.00180584        0.00002270        0.00190954
      26         -0.576511        1.000000        0.00000144        0.00173683        0.00000522        0.00229383
      27         -0.575341        1.000000        0.00020527        0.00000226        0.00143124        0.00000279
      28         -0.574435        1.000000        0.00000031        0.00000254        0.00000307        0.00000335
      29         -0.574372        1.000000        0.00000036        0.00020394        0.00000160        0.00027020
      30         -0.573551        1.000000        0.00011012        0.00000019        0.00182921        0.00000066
      31         -0.464985        1.000000        0.00133779        0.00000497        0.01451332        0.00003525
      32         -0.460529        1.000000        0.00000273        0.00278019        0.00002056        0.01540058
      33         -0.458210        1.000000        0.00010220        0.00039507        0.00180634        0.00178271
      34         -0.458113        1.000000        0.00010482        0.00034731        0.00191201        0.00156342
      35         -0.445350        1.000000        0.00196618        0.00000476        0.01549236        0.00002707
      36         -0.442423        1.000000        0.00000322        0.00415552        0.00002167        0.01545756
      37         -0.434948        1.000000        0.00025903        0.00000133        0.00311004        0.00000884
      38         -0.433555        1.000000        0.00000047        0.00134228        0.00000380        0.00451847
      39         -0.432893        1.000000        0.00006415        0.00028289        0.00713636        0.00171061
      40         -0.432487        1.000000        0.00001117        0.00148118        0.00151250        0.00867762
      41         -0.430503        1.000000        0.00000000        0.00003344        0.00000007        0.00015918
      42         -0.430439        1.000000        0.00000250        0.00000005        0.00003391        0.00000030
      43         -0.404898        1.000000        0.00001471        0.00068134        0.00013208        0.00232709
      44         -0.404636        1.000000        0.00018395        0.00005316        0.00155095        0.00017860
      45         -0.403202        1.000000        0.00001835        0.00000051        0.00042781        0.00000157
      46         -0.402294        1.000000        0.00000001        0.00013786        0.00000041        0.00061527
      47         -0.389353        1.000000        0.00156391        0.00001349        0.01246454        0.00007004
      48         -0.387589        1.000000        0.00000841        0.00209860        0.00008786        0.00885817
      49         -0.385993        1.000000        0.00012023        0.00000017        0.00082448        0.00000096
      50         -0.385455        1.000000        0.00000010        0.00013175        0.00000111        0.00043176
      51         -0.363355        1.000000        0.00001932        0.00000152        0.00156264        0.00000991
      52         -0.362842        1.000000        0.00000016        0.00019514        0.00001460        0.00098967
      53         -0.357185        1.000000        0.00150334        0.00000174        0.01107469        0.00000693
      54         -0.353777        1.000000        0.00000076        0.00213825        0.00000860        0.00605614
      55         -0.344607        1.000000        0.00020534        0.00014121        0.00182181        0.00039000
      56         -0.344531        1.000000        0.00025659        0.00011272        0.00233134        0.00031637
      57         -0.321362        1.000000        0.00353818        0.00000305        0.06714359        0.00000529
      58         -0.316595        1.000000        0.00000319        0.00228943        0.00006153        0.00513403
      59         -0.314609        1.000000        0.00091750        0.00000107        0.00838557        0.00000192
      60         -0.314157        1.000000        0.00000273        0.00061347        0.00003121        0.00116637
      61         -0.309868        1.000000        0.00475069        0.00000060        0.04788000        0.00000064
      62         -0.307466        1.000000        0.00000036        0.00054184        0.00000905        0.00064104
      63         -0.304235        1.000000        0.01268884        0.00000110        0.10117874        0.00000108
      64         -0.294888        1.000000        0.00060720        0.00001397        0.06552532        0.00008357
      65         -0.292840        1.000000        0.00000295        0.00265670        0.00046054        0.01385370
      66         -0.290604        1.000000        0.00001370        0.00156393        0.00044986        0.00036099
      67         -0.287880        1.000000        0.00349771        0.00000506        0.14043812        0.00000178
      68         -0.283954        1.000000        0.00050783        0.00000209        0.17394701        0.00001038
      69         -0.282417        1.000000        0.00000096        0.00024787        0.00004083        0.00103311
      70         -0.281920        1.000000        0.00021061        0.00000085        0.04618501        0.00000798
      71         -0.280658        1.000000        0.00020412        0.00000063        0.00768052        0.00000091
      72         -0.280332        1.000000        0.00000026        0.00041180        0.00003529        0.00067140
      73         -0.277827        1.000000        0.00000077        0.00124882        0.00009216        0.00268308
      74         -0.275155        1.000000        0.00001690        0.00000052        0.05805877        0.00000106
      75         -0.272907        1.000000        0.00000731        0.00094735        0.00191238        0.00164615
      76         -0.272759        1.000000        0.00010704        0.00009036        0.01288212        0.00015734
      77         -0.271529        1.000000        0.00000010        0.00071398        0.00003056        0.00160043
      78         -0.263175        1.000000        0.00009112        0.00000093        0.08364602        0.00000145
      79         -0.261139        1.000000        0.00002006        0.00094135        0.00112733        0.00089489
      80         -0.260550        1.000000        0.00097049        0.00002355        0.05142273        0.00002514
      81         -0.259109        1.000000        0.00123447        0.00000111        0.50659338        0.00000513
      82         -0.258806        1.000000        0.00000568        0.00078754        0.00082374        0.00160704
      83         -0.252105        1.000000        0.00000710        0.01019544        0.02754821        0.00790244
      84         -0.250633        1.000000        0.00019768        0.00036120        0.73912082        0.00029725
      85         -0.248447        1.000000        0.00002531        0.00000464        0.96747398        0.00000350
      86         -0.247295        1.000000        0.00000003        0.00007778        0.00013969        0.00006126
      87         -0.246814        1.000000        0.00029501        0.00000109        0.70459782        0.00000038
      88         -0.244734        1.000000        0.00267087        0.00000140        0.05369577        0.00000087
      89         -0.243655        1.000000        0.01471182        0.00000374        0.18158397        0.00000441
      90         -0.242946        1.000000        0.00001096        0.00046271        0.00020721        0.00026822
      91         -0.242161        1.000000        0.01760666        0.00000746        0.15539030        0.00000450
      92         -0.236032        1.000000        0.00740430        0.00000103        0.41825603        0.00000287
      93         -0.228015        1.000000        0.00009303        0.00000440        0.00883587        0.00000156
      94         -0.224318        1.000000        0.00000951        0.00566677        0.00021085        0.00130698
      95         -0.219682        1.000000        0.00031176        0.00000098        0.03768266        0.00000187
      96         -0.218864        1.000000        0.00730963        0.00000202        0.06335563        0.00000191
      97         -0.217079        1.000000        0.00000130        0.00237204        0.00004851        0.00012620
      98         -0.215585        1.000000        0.00000092        0.00123028        0.00012006        0.00015267
      99         -0.214627        1.000000        0.00240232        0.00000137        0.00957752        0.00000074
     100         -0.214463        1.000000        0.00008014        0.00000394        0.00627996        0.00000629
     101         -0.211671        1.000000        0.00000344        0.00376067        0.00002402        0.00188896
     102         -0.204576        1.000000        0.00000003        0.00049234        0.00000059        0.00044273
     103         -0.202852        1.000000        0.00000120        0.01037809        0.00001325        0.00342668
     104         -0.199397        1.000000        0.00000007        0.00752046        0.00000659        0.00298667
     105         -0.196895        1.000000        0.00331625        0.00000306        0.00890994        0.00000103
     106         -0.195081        1.000000        0.00020667        0.00000032        0.00212770        0.00000060
     107         -0.189152        1.000000        0.00154268        0.00000031        0.00515785        0.00000038
     108         -0.186484        1.000000        0.00000386        0.00000700        0.00066880        0.00000600
     109         -0.185949        1.000000        0.00000227        0.01388645        0.00004312        0.00119604
     110         -0.182206        1.000000        0.00000065        0.00057454        0.00001533        0.00282161
     111         -0.180897        1.000000        0.00007051        0.00063779        0.00195515        0.00042429
     112         -0.180830        1.000000        0.00012679        0.00032808        0.00380187        0.00021586
     113         -0.179920        1.000000        0.00000319        0.00000371        0.00560511        0.00000327
     114         -0.179119        1.000000        0.00000011        0.00314050        0.00000155        0.00070233
     115         -0.176221        1.000000        0.00000008        0.00009004        0.00000326        0.00060021
     116         -0.171611        1.000000        0.00000014        0.00137849        0.00002537        0.00563014
     117         -0.169139        1.000000        0.00006036        0.00000908        0.01323031        0.00001455
     118         -0.167772        1.000000        0.00000100        0.00350679        0.00003089        0.00234701
     119         -0.163800        1.000000        0.00018378        0.00000154        0.00667363        0.00000107
     120         -0.163184        1.000000        0.00000033        0.00010054        0.00000542        0.00024402
     121         -0.162357        1.000000        0.00034677        0.00000257        0.00838332        0.00000198
     122         -0.161556        1.000000        0.00000006        0.00012135        0.00000127        0.00010008
     123         -0.161098        1.000000        0.00008145        0.00000050        0.00227091        0.00000054
     124         -0.156102        1.000000        0.00000008        0.00020792        0.00000132        0.00029024
     125         -0.155733        1.000000        0.00007786        0.00000055        0.00118683        0.00000061
     126         -0.155148        1.000000        0.00002291        0.00000065        0.00031173        0.00000023
     127         -0.154453        1.000000        0.00000036        0.00035707        0.00000293        0.00046652
     128         -0.145118        1.000000        0.00000027        0.01070817        0.00000811        0.00212903
     129         -0.137941        1.000000        0.00017618        0.00014328        0.00411522        0.00000279
     130         -0.136010        1.000000        0.00000187        0.05954164        0.00005150        0.00089392
     131         -0.135452        1.000000        0.00000045        0.01494208        0.00000410        0.00056689
     132         -0.134823        1.000000        0.00033123        0.00005567        0.00138318        0.00000268
     133         -0.130509        1.000000        0.00000179        0.02129717        0.00000822        0.00372178
     134         -0.117031        1.000000        0.07572315        0.00000534        0.05632168        0.00000041
     135         -0.111572        1.000000        0.00000020        0.00019973        0.00000015        0.00003590
     136         -0.107885        1.000000        0.00000025        0.00018241        0.00000011        0.00004829
     137         -0.102643        1.000000        0.00042626        0.00000002        0.00024573        0.00000002
     138         -0.096755        1.000000        0.00000021        0.00050487        0.00000023        0.00011648
     139         -0.095481        1.000000        0.00022063        0.00000015        0.00173335        0.00000016
     140         -0.089985        1.000000        0.00000002        0.00002823        0.00000023        0.00000302
     141         -0.086616        1.000000        0.00027525        0.00000207        0.01673116        0.00000112
     142         -0.081685        1.000000        0.00000013        0.00000164        0.01225887        0.00000074
     143         -0.081566        1.000000        0.00002958        0.00000064        0.00494133        0.00000030
     144         -0.009195        1.000000        0.12503109        0.00000195        0.02947148        0.00000348
     145          0.038895        0.000000        0.00001060        0.02177880        0.00000614        0.01585739
     146          0.048652        0.000000        0.00089826        0.00005863        0.00194498        0.00003708
     147          0.048753        0.000000        0.00007689        0.00056978        0.00016039        0.00040427
     148          0.056174        0.000000        0.02774258        0.00001673        0.02068418        0.00000378
     149          0.074727        0.000000        0.00000008        0.04961824        0.00000642        0.00994677
     150          0.077288        0.000000        0.00003111        0.03772202        0.00003262        0.00848490
     151          0.081942        0.000000        0.01225281        0.00019169        0.01887374        0.00003963
     152          0.107111        0.000000        0.00000017        0.00046318        0.00000024        0.00011380
     153          0.107775        0.000000        0.00049075        0.00000183        0.00062551        0.00000020
     154          0.113504        0.000000        0.00000010        0.00078794        0.00000010        0.00027313
     155          0.114429        0.000000        0.00185114        0.00000710        0.00186782        0.00000069
     156          0.120421        0.000000        0.11158530        0.00045747        0.12088174        0.00004149
     157          0.128205        0.000000        0.00001011        0.02503325        0.00002505        0.00934608
     158          0.129182        0.000000        0.00432962        0.00025343        0.00649304        0.00011401
     159          0.137378        0.000000        0.00752467        0.00012761        0.01181424        0.00001606
     160          0.145280        0.000000        0.00002083        0.02042177        0.00002309        0.00313959
     161          0.153560        0.000000        0.00009748        0.29052782        0.00009897        0.05321821
     162          0.156432        0.000000        0.00000882        0.42110171        0.00003817        0.04855918
     163          0.176846        0.000000        0.00500407        0.00003555        0.00335582        0.00001375
     164          0.188846        0.000000        0.00000647        0.02396081        0.00000326        0.00665056
     165          0.197583        0.000000        0.00273456        0.00000420        0.00870975        0.00000391
     166          0.201776        0.000000        0.00000449        0.10699926        0.00000858        0.00852281
     167          0.205226        0.000000        0.00007832        0.02041278        0.00009877        0.01102097
     168          0.205810        0.000000        0.00545195        0.00022064        0.01019590        0.00012090
     169          0.212710        0.000000        0.00033620        0.00003905        0.01036103        0.00000685
     170          0.213449        0.000000        0.00002229        0.02087730        0.00002526        0.00879955
     171          0.220947        0.000000        0.00010627        0.00001017        0.00947029        0.00000395
     172          0.231664        0.000000        0.00546427        0.00001059        0.01164677        0.00000405
     173          0.233880        0.000000        0.01491470        0.00003464        0.00838574        0.00001966
     174          0.236846        0.000000        0.00005988        0.01264687        0.00007830        0.00437792
     175          0.243971        0.000000        0.00104059        0.00060253        0.01004819        0.00005673
     176          0.244114        0.000000        0.00001893        0.06452357        0.00005826        0.00599889
     177          0.249365        0.000000        0.00000374        0.03276941        0.00000503        0.00339822
     178          0.257718        0.000000        0.00000539        0.01423398        0.00000889        0.00439316
     179          0.260118        0.000000        0.00156743        0.00004482        0.01502928        0.00000583
     180          0.263977        0.000000        0.00000521        0.00437920        0.00001056        0.00462629
     181          0.268331        0.000000        0.00000265        0.05238956        0.00000614        0.00849577
     182          0.273860        0.000000        0.00947576        0.00001635        0.01584009        0.00000460
     183          0.278126        0.000000        0.00001403        0.03001852        0.00002844        0.00505010
     184          0.282454        0.000000        0.00293764        0.00000447        0.02859068        0.00000563
     185          0.286437        0.000000        0.00000039        0.01342425        0.00000471        0.01453422
     186          0.290276        0.000000        0.00000203        0.00598848        0.00005469        0.00299284
     187          0.291807        0.000000        0.00656731        0.00001136        0.01972477        0.00000371
     188          0.294358        0.000000        0.00001285        0.01508013        0.00012471        0.00365118
     189          0.295038        0.000000        0.00071629        0.00020534        0.00424904        0.00004773
     190          0.295608        0.000000        0.00063647        0.00000496        0.00904195        0.00000262
     191          0.301628        0.000000        0.00022663        0.00000537        0.00376820        0.00001286
     192          0.306435        0.000000        0.00000058        0.00659189        0.00001343        0.00750571
     193          0.307186        0.000000        0.00000144        0.01307255        0.00001421        0.00191974
     194          0.309225        0.000000        0.00027815        0.00006503        0.00633298        0.00001894
