# Projected DOS for atomic kind B at iteration step i = 0, E(Fermi) =    -0.075693 a.u.
#     MO Eigenvalue [a.u.]      Occupation                 s                 p                 d
       1         -0.902184        1.000000        0.15072138        0.11565983        0.06201413
       2         -0.902135        1.000000        0.14983836        0.11633395        0.06217075
       3         -0.898669        1.000000        0.13995129        0.11397234        0.07672088
       4         -0.898575        1.000000        0.14001197        0.11393466        0.07664491
       5         -0.847446        1.000000        0.02875169        0.20146687        0.12923623
       6         -0.847409        1.000000        0.02866432        0.20144452        0.12925346
       7         -0.846517        1.000000        0.02911291        0.19900546        0.13035494
       8         -0.846458        1.000000        0.02913005        0.19892232        0.13044194
       9         -0.844568        1.000000        0.02864059        0.19987083        0.12965831
      10         -0.844471        1.000000        0.02857532        0.19978312        0.12974642
      11         -0.843367        1.000000        0.02919541        0.20040685        0.13017772
      12         -0.843301        1.000000        0.02919236        0.20036264        0.13039067
      13         -0.684130        1.000000        0.01761786        0.05098131        0.01032871
      14         -0.682704        1.000000        0.01565328        0.05169589        0.01060276
      15         -0.681947        1.000000        0.01826587        0.04748586        0.00987507
      16         -0.678211        1.000000        0.01040055        0.04095295        0.01456007
      17         -0.676788        1.000000        0.01141670        0.04119868        0.01244032
      18         -0.676099        1.000000        0.01118789        0.04042927        0.01211626
      19         -0.580885        1.000000        0.02325633        0.05473078        0.01054528
      20         -0.579479        1.000000        0.02827465        0.06782031        0.01255163
      21         -0.578338        1.000000        0.02399499        0.05976734        0.01464752
      22         -0.578143        1.000000        0.00196756        0.01207023        0.00906235
      23         -0.576023        1.000000        0.02333354        0.05605861        0.01367501
      24         -0.575804        1.000000        0.00984635        0.03155849        0.01014799
      25         -0.574341        1.000000        0.00342890        0.01510681        0.00949550
      26         -0.573791        1.000000        0.00112098        0.00767215        0.00778429
      27         -0.573537        1.000000        0.01333596        0.04274923        0.01114920
      28         -0.573427        1.000000        0.00467975        0.02124995        0.01079241
      29         -0.573000        1.000000        0.00245245        0.01158703        0.00943677
      30         -0.570915        1.000000        0.01550176        0.05705549        0.01560476
      31         -0.458063        1.000000        0.07643934        0.05419002        0.00212501
      32         -0.457489        1.000000        0.07647191        0.05426200        0.00207464
      33         -0.457470        1.000000        0.07683374        0.05263221        0.00240780
      34         -0.456407        1.000000        0.07720939        0.05218346        0.00255212
      35         -0.437757        1.000000        0.00005712        0.03326132        0.01322044
      36         -0.437471        1.000000        0.00034362        0.03299448        0.01307931
      37         -0.430255        1.000000        0.01717710        0.07227856        0.00654517
      38         -0.430097        1.000000        0.01479793        0.06710468        0.00833525
      39         -0.429705        1.000000        0.00224368        0.01811424        0.02000158
      40         -0.429685        1.000000        0.00236955        0.01674412        0.01966659
      41         -0.429521        1.000000        0.00306858        0.01972256        0.01979034
      42         -0.428118        1.000000        0.00397518        0.02357687        0.01861564
      43         -0.403886        1.000000        0.11470159        0.06253092        0.01325424
      44         -0.403503        1.000000        0.11306593        0.06394379        0.01343027
      45         -0.403053        1.000000        0.11643862        0.06271200        0.01232428
      46         -0.402030        1.000000        0.11513113        0.06338850        0.01245392
      47         -0.385656        1.000000        0.03873000        0.03514363        0.01319261
      48         -0.384841        1.000000        0.04051498        0.03437821        0.01372241
      49         -0.384615        1.000000        0.03918530        0.03402420        0.01396536
      50         -0.384502        1.000000        0.03638203        0.03506656        0.01382347
      51         -0.363359        1.000000        0.00006842        0.23439967        0.00018611
      52         -0.362868        1.000000        0.00006733        0.23499675        0.00015993
      53         -0.354046        1.000000        0.01657037        0.07947108        0.00901793
      54         -0.351619        1.000000        0.01109375        0.07937807        0.01166269
      55         -0.344280        1.000000        0.00001165        0.23862063        0.00388628
      56         -0.343725        1.000000        0.00001286        0.23946487        0.00404583
      57         -0.314233        1.000000        0.01927813        0.10132014        0.01783036
      58         -0.314115        1.000000        0.02270901        0.10285278        0.01610926
      59         -0.313555        1.000000        0.02370983        0.10358086        0.01610846
      60         -0.312892        1.000000        0.01853673        0.10185784        0.01688425
      61         -0.307364        1.000000        0.00328299        0.12413631        0.08021178
      62         -0.306880        1.000000        0.00408820        0.11989283        0.08007973
      63         -0.295861        1.000000        0.00000890        0.23150688        0.02693438
      64         -0.293020        1.000000        0.00001745        0.23401964        0.03553298
      65         -0.283796        1.000000        0.01874411        0.02314047        0.04381207
      66         -0.283498        1.000000        0.01770799        0.02654089        0.03022919
      67         -0.280989        1.000000        0.02185704        0.01602226        0.10823288
      68         -0.280313        1.000000        0.01958568        0.01414844        0.09549133
      69         -0.277222        1.000000        0.00283558        0.03054938        0.01643435
      70         -0.276630        1.000000        0.00257416        0.03104515        0.01433117
      71         -0.276459        1.000000        0.00270239        0.03101822        0.01355675
      72         -0.275867        1.000000        0.00251680        0.02993729        0.01456902
      73         -0.270071        1.000000        0.00128262        0.00690762        0.01910080
      74         -0.269785        1.000000        0.00171594        0.00867815        0.02119581
      75         -0.269316        1.000000        0.00124550        0.00807738        0.01904086
      76         -0.269039        1.000000        0.00171972        0.00646830        0.02012758
      77         -0.261413        1.000000        0.00000295        0.16819823        0.03612393
      78         -0.259269        1.000000        0.00000192        0.17695357        0.03570721
      79         -0.257962        1.000000        0.00000559        0.03040701        0.01659726
      80         -0.257439        1.000000        0.00000894        0.02996366        0.01640698
      81         -0.247056        1.000000        0.00036856        0.01445016        0.00131767
      82         -0.244409        1.000000        0.00066215        0.01458107        0.00108999
      83         -0.244090        1.000000        0.00034788        0.01189788        0.00145329
      84         -0.243515        1.000000        0.00032033        0.01068398        0.00094389
      85         -0.240863        1.000000        0.00003034        0.00606658        0.00092661
      86         -0.240571        1.000000        0.00005965        0.00512048        0.00067917
      87         -0.235012        1.000000        0.00000244        0.07183612        0.03107182
      88         -0.230287        1.000000        0.00003097        0.06899409        0.02410187
      89         -0.219336        1.000000        0.06502604        0.05888375        0.04866761
      90         -0.217478        1.000000        0.06689238        0.06140221        0.04438647
      91         -0.216527        1.000000        0.00038129        0.02198844        0.04021671
      92         -0.214887        1.000000        0.01062198        0.18377013        0.00534174
      93         -0.214729        1.000000        0.01118750        0.18339319        0.00551653
      94         -0.213566        1.000000        0.01077318        0.18411356        0.00498849
      95         -0.213058        1.000000        0.00892018        0.18532411        0.00680328
      96         -0.212180        1.000000        0.00017504        0.11032125        0.07907972
      97         -0.204859        1.000000        0.00003612        0.09276672        0.06189928
      98         -0.200094        1.000000        0.00003968        0.08853551        0.07109689
      99         -0.196720        1.000000        0.00001900        0.07539728        0.08004391
     100         -0.194729        1.000000        0.00000423        0.04800835        0.08371070
     101         -0.194649        1.000000        0.00000235        0.07957856        0.05182581
     102         -0.188588        1.000000        0.00000092        0.06745025        0.07468361
     103         -0.185768        1.000000        0.00001876        0.03807502        0.08120358
     104         -0.180211        1.000000        0.00198885        0.07669228        0.02610428
     105         -0.179717        1.000000        0.00185034        0.07747171        0.02690881
     106         -0.179554        1.000000        0.00198937        0.07755490        0.02693399
     107         -0.178712        1.000000        0.00172252        0.07727460        0.02682746
     108         -0.175140        1.000000        0.00000459        0.00840314        0.03204927
     109         -0.172710        1.000000        0.00000462        0.00271752        0.03280579
     110         -0.172145        1.000000        0.00000081        0.00421682        0.04899008
     111         -0.163011        1.000000        0.00272727        0.02437729        0.01076720
     112         -0.162994        1.000000        0.00235122        0.02075281        0.00989260
     113         -0.162665        1.000000        0.00281991        0.02184823        0.00932699
     114         -0.162366        1.000000        0.00418660        0.02606029        0.00955404
     115         -0.160872        1.000000        0.04863888        0.09263279        0.01571894
     116         -0.160584        1.000000        0.05322515        0.09378311        0.01446299
     117         -0.159787        1.000000        0.00019603        0.00163211        0.00465685
     118         -0.159273        1.000000        0.00010817        0.00102713        0.00436665
     119         -0.154526        1.000000        0.01220053        0.07802611        0.06486270
     120         -0.154503        1.000000        0.01183843        0.07766791        0.06600546
     121         -0.154076        1.000000        0.01149262        0.07780414        0.06522440
     122         -0.153615        1.000000        0.01124267        0.07610973        0.06573294
     123         -0.134927        1.000000        0.02071657        0.11580040        0.04407642
     124         -0.134881        1.000000        0.02039827        0.11521530        0.04372622
     125         -0.134772        1.000000        0.02052524        0.11601739        0.04385120
     126         -0.133589        1.000000        0.02030262        0.11267563        0.04423683
     127         -0.118392        1.000000        0.00000039        0.02377430        0.04116659
     128         -0.113974        1.000000        0.00000094        0.01820042        0.05082854
     129         -0.111119        1.000000        0.00000015        0.00174023        0.00626592
     130         -0.099765        1.000000        0.00000022        0.02729822        0.04304632
     131         -0.096351        1.000000        0.00000037        0.02688334        0.03591966
     132         -0.093816        1.000000        0.00000010        0.02444789        0.02997061
     133         -0.091444        1.000000        0.00000025        0.00771758        0.02072337
     134         -0.089964        1.000000        0.00000002        0.00394490        0.00845692
     135         -0.089033        1.000000        0.00000015        0.00591675        0.02042039
     136         -0.081862        1.000000        0.00000015        0.01578331        0.01369773
     137         -0.077365        1.000000        0.00000132        0.00962814        0.02378312
     138         -0.075693        1.000000        0.00000003        0.00070766        0.00041994
     139          0.046933        0.000000        0.00000168        0.24379423        0.04050153
     140          0.047400        0.000000        0.00000291        0.22981360        0.03896536
     141          0.051275        0.000000        0.00000464        0.25504061        0.04157715
     142          0.053206        0.000000        0.00000125        0.24310140        0.04041921
     143          0.078898        0.000000        0.00000265        0.09960879        0.03810555
     144          0.082488        0.000000        0.00000179        0.09097447        0.04902416
     145          0.107008        0.000000        0.00000023        0.01222954        0.00433292
     146          0.108351        0.000000        0.00000029        0.01791585        0.00509571
     147          0.109430        0.000000        0.00000013        0.00996826        0.00291835
     148          0.115661        0.000000        0.00000048        0.03704462        0.00390641
     149          0.116685        0.000000        0.00000015        0.00577881        0.00522502
     150          0.116793        0.000000        0.00000372        0.00959058        0.00359023
     151          0.129848        0.000000        0.00002442        0.49975371        0.02018879
     152          0.141555        0.000000        0.00000345        0.45571907        0.01414204
     153          0.141771        0.000000        0.00000578        0.48649168        0.02054298
     154          0.148616        0.000000        0.00001086        0.46938846        0.01706636
     155          0.177349        0.000000        0.25446170        0.03811120        0.19500737
     156          0.186333        0.000000        0.23443552        0.08873591        0.23269288
     157          0.196720        0.000000        0.00059134        0.33406055        0.00213107
     158          0.203270        0.000000        0.00002883        0.30058335        0.01679039
     159          0.209786        0.000000        0.00003313        0.36324627        0.01903514
     160          0.215190        0.000000        0.00000949        0.32102175        0.00841131
     161          0.219226        0.000000        0.00028696        0.39542868        0.01309291
     162          0.219340        0.000000        0.00009370        0.37739202        0.00881556
     163          0.220082        0.000000        0.07195753        0.15875867        0.09537395
     164          0.226384        0.000000        0.05740088        0.17078267        0.08483096
     165          0.237340        0.000000        0.06547932        0.15108107        0.09381005
     166          0.242462        0.000000        0.02353238        0.09623335        0.04766938
     167          0.243812        0.000000        0.00420263        0.29824814        0.01604168
     168          0.244086        0.000000        0.03322654        0.15906920        0.06355401
     169          0.246351        0.000000        0.03684615        0.03556893        0.01331036
     170          0.260817        0.000000        0.02453133        0.07150325        0.04278377
     171          0.266474        0.000000        0.05360120        0.09695136        0.06268227
     172          0.268883        0.000000        0.02960907        0.09100064        0.05519839
     173          0.273843        0.000000        0.00001687        0.32147143        0.02316819
     174          0.284104        0.000000        0.03114211        0.09532534        0.03970172
     175          0.288101        0.000000        0.00598597        0.05221290        0.04148879
     176          0.291702        0.000000        0.00439096        0.08616636        0.02729313
     177          0.296840        0.000000        0.00099886        0.10246357        0.02294659
     178          0.297051        0.000000        0.03735841        0.09070138        0.11188505
     179          0.297803        0.000000        0.00000357        0.07492291        0.01186899
     180          0.298543        0.000000        0.00066155        0.21327661        0.01912039
     181          0.298674        0.000000        0.00175412        0.12716105        0.03019367
     182          0.303594        0.000000        0.01414827        0.05349880        0.04704767
     183          0.307091        0.000000        0.00004052        0.12843583        0.01881866
     184          0.308976        0.000000        0.02071395        0.10521441        0.04995947
     185          0.309295        0.000000        0.01344653        0.12107999        0.03560316
     186          0.311272        0.000000        0.00582290        0.10670504        0.06180412
     187          0.312283        0.000000        0.02084385        0.06578490        0.04894747
     188          0.317028        0.000000        0.04781828        0.08104059        0.04136872
