# Projected DOS for atomic kind O at iteration step i = 0, E(Fermi) =    -0.075693 a.u.
#     MO Eigenvalue [a.u.]      Occupation                 s                 p                 d
       1         -0.902184        1.000000        0.57162579        0.05716326        0.00165726
       2         -0.902135        1.000000        0.57134801        0.05719767        0.00165309
       3         -0.898669        1.000000        0.56950516        0.05757344        0.00172491
       4         -0.898575        1.000000        0.56959800        0.05753405        0.00172398
       5         -0.847446        1.000000        0.59154332        0.01197198        0.00367700
       6         -0.847409        1.000000        0.59162219        0.01192703        0.00367276
       7         -0.846517        1.000000        0.59248165        0.01205343        0.00369574
       8         -0.846458        1.000000        0.59247222        0.01203782        0.00369966
       9         -0.844568        1.000000        0.59281408        0.01182882        0.00369453
      10         -0.844471        1.000000        0.59291859        0.01176515        0.00368369
      11         -0.843367        1.000000        0.59106014        0.01220222        0.00373422
      12         -0.843301        1.000000        0.59099208        0.01216139        0.00374307
      13         -0.684130        1.000000        0.00179177        0.00745008        0.00025877
      14         -0.682704        1.000000        0.00153853        0.00797916        0.00015657
      15         -0.681947        1.000000        0.00177440        0.00251503        0.00075980
      16         -0.678211        1.000000        0.00116104        0.00568870        0.00026730
      17         -0.676788        1.000000        0.00116602        0.00703054        0.00014684
      18         -0.676099        1.000000        0.00136643        0.00235460        0.00068937
      19         -0.580885        1.000000        0.00188189        0.03843281        0.00026369
      20         -0.579479        1.000000        0.00326593        0.04252011        0.00040864
      21         -0.578338        1.000000        0.00227628        0.03871713        0.00043017
      22         -0.578143        1.000000        0.00092517        0.00360557        0.00006731
      23         -0.576023        1.000000        0.00211013        0.03869558        0.00033884
      24         -0.575804        1.000000        0.00180262        0.00323991        0.00114524
      25         -0.574341        1.000000        0.00118858        0.00483717        0.00011580
      26         -0.573791        1.000000        0.00008541        0.00502625        0.00006115
      27         -0.573537        1.000000        0.00242950        0.00405179        0.00164231
      28         -0.573427        1.000000        0.00122483        0.00186320        0.00068732
      29         -0.573000        1.000000        0.00104848        0.00220828        0.00015706
      30         -0.570915        1.000000        0.00279762        0.00648623        0.00212742
      31         -0.458063        1.000000        0.00497772        0.27069339        0.00236520
      32         -0.457489        1.000000        0.00471011        0.26257491        0.00240864
      33         -0.457470        1.000000        0.00488343        0.26700011        0.00239598
      34         -0.456407        1.000000        0.00427808        0.26647642        0.00247130
      35         -0.437757        1.000000        0.00001096        0.07271848        0.00000698
      36         -0.437471        1.000000        0.00002814        0.07273415        0.00002685
      37         -0.430255        1.000000        0.00220026        0.01340378        0.00521237
      38         -0.430097        1.000000        0.00183766        0.01267795        0.00475538
      39         -0.429705        1.000000        0.00243264        0.00320410        0.00054180
      40         -0.429685        1.000000        0.00224054        0.00365234        0.00054656
      41         -0.429521        1.000000        0.00282000        0.00416158        0.00049330
      42         -0.428118        1.000000        0.00234903        0.00428674        0.00103381
      43         -0.403886        1.000000        0.00683696        0.58262018        0.00847355
      44         -0.403503        1.000000        0.00697381        0.58463342        0.00842910
      45         -0.403053        1.000000        0.00605418        0.58486473        0.00862696
      46         -0.402030        1.000000        0.00631333        0.58210626        0.00852132
      47         -0.385656        1.000000        0.00352560        0.24927966        0.00337088
      48         -0.384841        1.000000        0.00331619        0.25486497        0.00367032
      49         -0.384615        1.000000        0.00358035        0.25034419        0.00360222
      50         -0.384502        1.000000        0.00371198        0.24450162        0.00337683
      51         -0.363359        1.000000        0.00001727        0.61275985        0.00062247
      52         -0.362868        1.000000        0.00000283        0.61337464        0.00063063
      53         -0.354046        1.000000        0.00676694        0.12436897        0.00426900
      54         -0.351619        1.000000        0.00671277        0.12928614        0.00430336
      55         -0.344280        1.000000        0.00000698        0.62436821        0.00088032
      56         -0.343725        1.000000        0.00000591        0.62424507        0.00088298
      57         -0.314233        1.000000        0.00172106        0.20608291        0.00794894
      58         -0.314115        1.000000        0.00124641        0.20715338        0.00806022
      59         -0.313555        1.000000        0.00119303        0.20977357        0.00812198
      60         -0.312892        1.000000        0.00114082        0.19694813        0.00782128
      61         -0.307364        1.000000        0.05462709        0.58331944        0.00814733
      62         -0.306880        1.000000        0.05447649        0.58226097        0.00778820
      63         -0.295861        1.000000        0.00001010        0.58884801        0.00576172
      64         -0.293020        1.000000        0.00003417        0.63404180        0.00618731
      65         -0.283796        1.000000        0.02750677        0.14179652        0.00340179
      66         -0.283498        1.000000        0.01561539        0.07131067        0.00345259
      67         -0.280989        1.000000        0.08173371        0.48805016        0.00404766
      68         -0.280313        1.000000        0.07384199        0.41792442        0.00327368
      69         -0.277222        1.000000        0.00420004        0.03303786        0.00127901
      70         -0.276630        1.000000        0.00081430        0.01074350        0.00130627
      71         -0.276459        1.000000        0.00090237        0.01024589        0.00119466
      72         -0.275867        1.000000        0.00224552        0.02131796        0.00127830
      73         -0.270071        1.000000        0.00167875        0.02435797        0.00033138
      74         -0.269785        1.000000        0.00222311        0.02566911        0.00033212
      75         -0.269316        1.000000        0.00200992        0.02447906        0.00025539
      76         -0.269039        1.000000        0.00204651        0.02293351        0.00037481
      77         -0.261413        1.000000        0.00000307        0.64915203        0.00630427
      78         -0.259269        1.000000        0.00000568        0.71773993        0.00664614
      79         -0.257962        1.000000        0.00000381        0.08845711        0.00020327
      80         -0.257439        1.000000        0.00000754        0.08742428        0.00018941
      81         -0.247056        1.000000        0.00042609        0.03094885        0.00010337
      82         -0.244409        1.000000        0.00053068        0.03184200        0.00010846
      83         -0.244090        1.000000        0.00042167        0.03127400        0.00011752
      84         -0.243515        1.000000        0.00034882        0.02814373        0.00011106
      85         -0.240863        1.000000        0.00001221        0.00324946        0.00017450
      86         -0.240571        1.000000        0.00000320        0.00228801        0.00018960
      87         -0.235012        1.000000        0.00000044        0.17955809        0.00412076
      88         -0.230287        1.000000        0.00002801        0.22007973        0.00392334
      89         -0.219336        1.000000        0.06222239        0.10384601        0.00933775
      90         -0.217478        1.000000        0.05330006        0.10372295        0.01033016
      91         -0.216527        1.000000        0.00028689        0.13516627        0.00169309
      92         -0.214887        1.000000        0.00582718        0.27778339        0.00771618
      93         -0.214729        1.000000        0.00620220        0.27776656        0.00773402
      94         -0.213566        1.000000        0.00586499        0.27772533        0.00763231
      95         -0.213058        1.000000        0.00591770        0.28529168        0.00769319
      96         -0.212180        1.000000        0.00010901        0.65213618        0.00673649
      97         -0.204859        1.000000        0.00003287        0.59768339        0.00579550
      98         -0.200094        1.000000        0.00003428        0.68279392        0.00582066
      99         -0.196720        1.000000        0.00002169        0.73634913        0.00484514
     100         -0.194729        1.000000        0.00000195        0.62220516        0.00310611
     101         -0.194649        1.000000        0.00000215        0.56904450        0.00552256
     102         -0.188588        1.000000        0.00000349        0.77249217        0.00450225
     103         -0.185768        1.000000        0.00004409        0.68184351        0.00226691
     104         -0.180211        1.000000        0.01590194        0.61156013        0.00132896
     105         -0.179717        1.000000        0.01636600        0.63061296        0.00136106
     106         -0.179554        1.000000        0.01604296        0.62620194        0.00135261
     107         -0.178712        1.000000        0.01678861        0.62612773        0.00136172
     108         -0.175140        1.000000        0.00000996        0.15651394        0.00035050
     109         -0.172710        1.000000        0.00000607        0.15389205        0.00026781
     110         -0.172145        1.000000        0.00000153        0.28365823        0.00015765
     111         -0.163011        1.000000        0.00130292        0.06385022        0.00147866
     112         -0.162994        1.000000        0.00103526        0.05188687        0.00130638
     113         -0.162665        1.000000        0.00086758        0.03952838        0.00147125
     114         -0.162366        1.000000        0.00144487        0.04863262        0.00180007
     115         -0.160872        1.000000        0.01429117        0.01062405        0.01053252
     116         -0.160584        1.000000        0.01257031        0.02336069        0.01096415
     117         -0.159787        1.000000        0.00008852        0.01106368        0.00012455
     118         -0.159273        1.000000        0.00010859        0.01113192        0.00007839
     119         -0.154526        1.000000        0.01964776        0.59799598        0.00338316
     120         -0.154503        1.000000        0.02006862        0.61098515        0.00326259
     121         -0.154076        1.000000        0.01934785        0.60415330        0.00317743
     122         -0.153615        1.000000        0.02020979        0.60679343        0.00310767
     123         -0.134927        1.000000        0.00621925        0.18031988        0.00403500
     124         -0.134881        1.000000        0.00621474        0.17798773        0.00400955
     125         -0.134772        1.000000        0.00600389        0.17732749        0.00405931
     126         -0.133589        1.000000        0.00704964        0.18600408        0.00387862
     127         -0.118392        1.000000        0.00000032        0.08021406        0.00191947
     128         -0.113974        1.000000        0.00000057        0.08006574        0.00123581
     129         -0.111119        1.000000        0.00000011        0.03611542        0.00018795
     130         -0.099765        1.000000        0.00000011        0.04936493        0.00204518
     131         -0.096351        1.000000        0.00000017        0.06950232        0.00211676
     132         -0.093816        1.000000        0.00000021        0.04334890        0.00210193
     133         -0.091444        1.000000        0.00000024        0.01768138        0.00040853
     134         -0.089964        1.000000        0.00000010        0.01984955        0.00034501
     135         -0.089033        1.000000        0.00000019        0.03774613        0.00021068
     136         -0.081862        1.000000        0.00000014        0.00961889        0.00154142
     137         -0.077365        1.000000        0.00000067        0.03264115        0.00043211
     138         -0.075693        1.000000        0.00000001        0.00450627        0.00011956
     139          0.046933        0.000000        0.00000068        0.07202737        0.02652905
     140          0.047400        0.000000        0.00000040        0.05741684        0.02458854
     141          0.051275        0.000000        0.00000070        0.07015561        0.02768406
     142          0.053206        0.000000        0.00000093        0.04445465        0.02622017
     143          0.078898        0.000000        0.00000216        0.08905768        0.00332908
     144          0.082488        0.000000        0.00000092        0.04974240        0.00383646
     145          0.107008        0.000000        0.00000083        0.01027278        0.00119791
     146          0.108351        0.000000        0.00000023        0.00864761        0.00205289
     147          0.109430        0.000000        0.00000007        0.00045991        0.00158335
     148          0.115661        0.000000        0.00000029        0.01129859        0.00443252
     149          0.116685        0.000000        0.00000006        0.00701534        0.00128910
     150          0.116793        0.000000        0.00000103        0.00760209        0.00092698
     151          0.129848        0.000000        0.00000389        0.09303834        0.06100393
     152          0.141555        0.000000        0.00000379        0.08243246        0.05536208
     153          0.141771        0.000000        0.00000743        0.05364253        0.05910830
     154          0.148616        0.000000        0.00000234        0.06215260        0.05631452
     155          0.177349        0.000000        0.19023443        0.02070602        0.00099692
     156          0.186333        0.000000        0.18554705        0.03649817        0.00332074
     157          0.196720        0.000000        0.00057328        0.25906147        0.01364669
     158          0.203270        0.000000        0.00003597        0.12964889        0.01803779
     159          0.209786        0.000000        0.00003603        0.04374549        0.05221221
     160          0.215190        0.000000        0.00001506        0.05787353        0.04492239
     161          0.219226        0.000000        0.00049609        0.04603715        0.05520990
     162          0.219340        0.000000        0.00015347        0.05845778        0.05119036
     163          0.220082        0.000000        0.11189547        0.03111174        0.00626647
     164          0.226384        0.000000        0.11235826        0.02647491        0.00747323
     165          0.237340        0.000000        0.11696190        0.03232145        0.00347913
     166          0.242462        0.000000        0.01684134        0.05067874        0.00538874
     167          0.243812        0.000000        0.00617308        0.23829651        0.01039941
     168          0.244086        0.000000        0.08814837        0.03539588        0.00474971
     169          0.246351        0.000000        0.06081208        0.00590325        0.00381569
     170          0.260817        0.000000        0.07129592        0.01595433        0.01103905
     171          0.266474        0.000000        0.05959307        0.01951219        0.00347134
     172          0.268883        0.000000        0.08879743        0.01374830        0.01373576
     173          0.273843        0.000000        0.00005037        0.18553375        0.02362094
     174          0.284104        0.000000        0.04159878        0.01977263        0.00361959
     175          0.288101        0.000000        0.01042955        0.02970370        0.00553960
     176          0.291702        0.000000        0.03296316        0.01403950        0.00735312
     177          0.296840        0.000000        0.00197244        0.01076941        0.01948588
     178          0.297051        0.000000        0.07242101        0.01798524        0.02141993
     179          0.297803        0.000000        0.00001305        0.02029805        0.01187995
     180          0.298543        0.000000        0.00914145        0.11032492        0.01352831
     181          0.298674        0.000000        0.02837347        0.03872253        0.00979020
     182          0.303594        0.000000        0.02036314        0.01910103        0.01244299
     183          0.307091        0.000000        0.00021978        0.01316068        0.02306571
     184          0.308976        0.000000        0.02290184        0.02826548        0.01782555
     185          0.309295        0.000000        0.01473150        0.02660573        0.01920601
     186          0.311272        0.000000        0.06716973        0.00207958        0.01844987
     187          0.312283        0.000000        0.00728911        0.02992421        0.00908331
     188          0.317028        0.000000        0.03228517        0.01963038        0.00489276
