# Projected DOS for atomic kind C at iteration step i = 0, E(Fermi) =    -0.009195 a.u.
#     MO Eigenvalue [a.u.]      Occupation                 s                 p                 d
       1         -0.901811        1.000000        0.00474132        0.01313006        0.01536762
       2         -0.901801        1.000000        0.00375940        0.01530004        0.01504059
       3         -0.897784        1.000000        0.00374215        0.01379179        0.01686162
       4         -0.897655        1.000000        0.00375754        0.01390084        0.01665899
       5         -0.847786        1.000000        0.00181978        0.00887090        0.01843711
       6         -0.847685        1.000000        0.00180755        0.00889453        0.01846921
       7         -0.845794        1.000000        0.00194810        0.00877395        0.01809012
       8         -0.845775        1.000000        0.00188876        0.00890937        0.01795991
       9         -0.843885        1.000000        0.00169511        0.00876372        0.01846723
      10         -0.843757        1.000000        0.00169213        0.00875450        0.01846195
      11         -0.843250        1.000000        0.00186386        0.00897344        0.01841028
      12         -0.843025        1.000000        0.00186802        0.00897227        0.01839512
      13         -0.694450        1.000000        0.56237068        0.13894607        0.02817423
      14         -0.683858        1.000000        0.60279109        0.15131606        0.04093703
      15         -0.682909        1.000000        0.54657423        0.14577215        0.08127999
      16         -0.681753        1.000000        0.60679066        0.15143380        0.04014628
      17         -0.680067        1.000000        0.59366814        0.15227194        0.07664731
      18         -0.677894        1.000000        0.59547902        0.15239745        0.07726846
      19         -0.594708        1.000000        0.42606443        0.22927211        0.10809824
      20         -0.585415        1.000000        0.44655068        0.23887573        0.12195474
      21         -0.582666        1.000000        0.41954267        0.23734909        0.11025347
      22         -0.582060        1.000000        0.42192138        0.23669602        0.11473997
      23         -0.579510        1.000000        0.43396710        0.24834209        0.11408742
      24         -0.578707        1.000000        0.43418009        0.24661295        0.11650358
      25         -0.578219        1.000000        0.45638595        0.25504636        0.11983808
      26         -0.576511        1.000000        0.44911774        0.25511665        0.11860721
      27         -0.575341        1.000000        0.46068264        0.25621779        0.12459441
      28         -0.574435        1.000000        0.46323937        0.25652695        0.12480316
      29         -0.574372        1.000000        0.45547414        0.25611992        0.12254736
      30         -0.573551        1.000000        0.44735110        0.25313262        0.12317674
      31         -0.464985        1.000000        0.18340565        0.39137528        0.02451231
      32         -0.460529        1.000000        0.17506142        0.37498547        0.02475637
      33         -0.458210        1.000000        0.16461049        0.37639554        0.02203510
      34         -0.458113        1.000000        0.16438937        0.37581877        0.02211424
      35         -0.445350        1.000000        0.22811333        0.47091622        0.02335072
      36         -0.442423        1.000000        0.23320732        0.48933849        0.01811353
      37         -0.434948        1.000000        0.24302898        0.51327665        0.02043149
      38         -0.433555        1.000000        0.25085432        0.51622079        0.02162215
      39         -0.432893        1.000000        0.25452767        0.52426357        0.02342569
      40         -0.432487        1.000000        0.25595632        0.52058614        0.02553089
      41         -0.430503        1.000000        0.25764240        0.53083676        0.02397532
      42         -0.430439        1.000000        0.25715367        0.53125312        0.02315706
      43         -0.404898        1.000000        0.03116116        0.12395996        0.05705564
      44         -0.404636        1.000000        0.03049707        0.12291787        0.05859658
      45         -0.403202        1.000000        0.02934718        0.11558292        0.05853262
      46         -0.402294        1.000000        0.03065433        0.11544204        0.05658059
      47         -0.389353        1.000000        0.08134626        0.42858610        0.02653736
      48         -0.387589        1.000000        0.08098767        0.40828593        0.03084455
      49         -0.385993        1.000000        0.08802323        0.41941258        0.02434167
      50         -0.385455        1.000000        0.09004872        0.41576177        0.02835677
      51         -0.363355        1.000000        0.00253318        0.12011579        0.02801785
      52         -0.362842        1.000000        0.00279235        0.11724610        0.02740491
      53         -0.357185        1.000000        0.02265577        0.53968942        0.04378195
      54         -0.353777        1.000000        0.02081557        0.53596281        0.05211185
      55         -0.344607        1.000000        0.03191101        0.03150741        0.03769128
      56         -0.344531        1.000000        0.03172066        0.03190651        0.03757376
      57         -0.321362        1.000000        0.03672326        0.40267482        0.05710147
      58         -0.316595        1.000000        0.03789791        0.41185216        0.06017824
      59         -0.314609        1.000000        0.03956589        0.42221295        0.05587678
      60         -0.314157        1.000000        0.03866533        0.42989182        0.06015129
      61         -0.309868        1.000000        0.03435401        0.21573747        0.04632971
      62         -0.307466        1.000000        0.01486249        0.12075707        0.02597162
      63         -0.304235        1.000000        0.02241209        0.31575267        0.04631724
      64         -0.294888        1.000000        0.08961192        0.27412482        0.12489632
      65         -0.292840        1.000000        0.14346732        0.31971197        0.17877829
      66         -0.290604        1.000000        0.00683461        0.08145831        0.03920217
      67         -0.287880        1.000000        0.01522613        0.21125734        0.05742599
      68         -0.283954        1.000000        0.03226837        0.52324522        0.04594230
      69         -0.282417        1.000000        0.03156917        0.16091665        0.03956940
      70         -0.281920        1.000000        0.04412577        0.28358264        0.05861351
      71         -0.280658        1.000000        0.09683162        0.28582177        0.12824836
      72         -0.280332        1.000000        0.11911912        0.32114522        0.15863162
      73         -0.277827        1.000000        0.08546031        0.55982698        0.11108004
      74         -0.275155        1.000000        0.11661017        0.36673937        0.15729199
      75         -0.272907        1.000000        0.03250169        0.71380221        0.05380862
      76         -0.272759        1.000000        0.00889479        0.80086527        0.02194557
      77         -0.271529        1.000000        0.02525796        0.77453054        0.04097240
      78         -0.263175        1.000000        0.00247198        0.54004998        0.01253917
      79         -0.261139        1.000000        0.00113230        0.18818869        0.01581384
      80         -0.260550        1.000000        0.00067832        0.33313595        0.01610727
      81         -0.259109        1.000000        0.00890441        0.30375576        0.03832075
      82         -0.258806        1.000000        0.00041205        0.71087164        0.00415302
      83         -0.252105        1.000000        0.00685222        0.65527375        0.05074014
      84         -0.250633        1.000000        0.00751274        0.17093059        0.01769625
      85         -0.248447        1.000000        0.00204244        0.01174987        0.00621406
      86         -0.247295        1.000000        0.00500162        0.66794123        0.05108585
      87         -0.246814        1.000000        0.00285995        0.22724477        0.01325835
      88         -0.244734        1.000000        0.00446793        0.62583806        0.05336504
      89         -0.243655        1.000000        0.00450632        0.52432866        0.05076909
      90         -0.242946        1.000000        0.00456038        0.67499798        0.05138108
      91         -0.242161        1.000000        0.00260125        0.54562935        0.04638395
      92         -0.236032        1.000000        0.00502444        0.35112030        0.02904317
      93         -0.228015        1.000000        0.00016514        0.61217722        0.03856955
      94         -0.224318        1.000000        0.00933689        0.53423363        0.03141105
      95         -0.219682        1.000000        0.00464506        0.54604559        0.03479626
      96         -0.218864        1.000000        0.00196079        0.52804853        0.05354952
      97         -0.217079        1.000000        0.01518394        0.45583548        0.03121432
      98         -0.215585        1.000000        0.01421190        0.41195269        0.03292502
      99         -0.214627        1.000000        0.01187893        0.45721150        0.03977688
     100         -0.214463        1.000000        0.01390034        0.43579517        0.03216126
     101         -0.211671        1.000000        0.00163849        0.21825830        0.04162686
     102         -0.204576        1.000000        0.00062025        0.19446354        0.03710604
     103         -0.202852        1.000000        0.00254436        0.35261478        0.02911363
     104         -0.199397        1.000000        0.00119658        0.34260589        0.02630313
     105         -0.196895        1.000000        0.00021270        0.06206787        0.02650003
     106         -0.195081        1.000000        0.00018923        0.14954965        0.03299344
     107         -0.189152        1.000000        0.00042821        0.10925413        0.02597388
     108         -0.186484        1.000000        0.00022608        0.16385648        0.03282619
     109         -0.185949        1.000000        0.00168148        0.35688962        0.05122957
     110         -0.182206        1.000000        0.00180075        0.29335214        0.05006200
     111         -0.180897        1.000000        0.00118417        0.43084846        0.05038539
     112         -0.180830        1.000000        0.00170207        0.32274892        0.04596148
     113         -0.179920        1.000000        0.00268697        0.18436476        0.03699913
     114         -0.179119        1.000000        0.00114836        0.34061825        0.04407906
     115         -0.176221        1.000000        0.00013908        0.54972900        0.05877466
     116         -0.171611        1.000000        0.00136618        0.50781648        0.10264329
     117         -0.169139        1.000000        0.00092874        0.56229652        0.11337210
     118         -0.167772        1.000000        0.00210060        0.57878925        0.11603578
     119         -0.163800        1.000000        0.00045363        0.57350162        0.12726880
     120         -0.163184        1.000000        0.00089369        0.57857173        0.12362652
     121         -0.162357        1.000000        0.00094890        0.59008616        0.11781910
     122         -0.161556        1.000000        0.00045791        0.61052407        0.13491767
     123         -0.161098        1.000000        0.00050747        0.61288089        0.13356567
     124         -0.156102        1.000000        0.00660809        0.18639198        0.01284079
     125         -0.155733        1.000000        0.00651198        0.16613480        0.00866133
     126         -0.155148        1.000000        0.00723588        0.18285181        0.00947979
     127         -0.154453        1.000000        0.00711673        0.18290693        0.00990792
     128         -0.145118        1.000000        0.00457371        0.51205142        0.09975825
     129         -0.137941        1.000000        0.00710280        0.45958928        0.08385533
     130         -0.136010        1.000000        0.00548764        0.61954624        0.11467723
     131         -0.135452        1.000000        0.00659655        0.50152618        0.09424589
     132         -0.134823        1.000000        0.00681361        0.47398338        0.08832474
     133         -0.130509        1.000000        0.00229455        0.57729390        0.11318980
     134         -0.117031        1.000000        0.00107189        0.66759550        0.11594117
     135         -0.111572        1.000000        0.00007181        0.69576744        0.13820493
     136         -0.107885        1.000000        0.00003542        0.74353653        0.14388058
     137         -0.102643        1.000000        0.00006482        0.72438152        0.13031521
     138         -0.096755        1.000000        0.00006108        0.70892614        0.12039407
     139         -0.095481        1.000000        0.00037246        0.75093281        0.13382562
     140         -0.089985        1.000000        0.00006142        0.76884085        0.12667401
     141         -0.086616        1.000000        0.00311182        0.76286379        0.13000847
     142         -0.081685        1.000000        0.00220050        0.77194776        0.12782330
     143         -0.081566        1.000000        0.00093062        0.79981085        0.13052802
     144         -0.009195        1.000000        0.00468091        0.43515907        0.24700565
     145          0.038895        0.000000        0.00196661        0.45952797        0.18241112
     146          0.048652        0.000000        0.00043879        0.42403315        0.20394408
     147          0.048753        0.000000        0.00015440        0.39666322        0.20880787
     148          0.056174        0.000000        0.00417056        0.38874211        0.21394987
     149          0.074727        0.000000        0.00175959        0.59024094        0.20269991
     150          0.077288        0.000000        0.00278292        0.56920619        0.20798841
     151          0.081942        0.000000        0.00409527        0.51826783        0.20951113
     152          0.107111        0.000000        0.00007016        0.67427102        0.23922831
     153          0.107775        0.000000        0.00015720        0.63451130        0.24279706
     154          0.113504        0.000000        0.00006564        0.64781069        0.23836246
     155          0.114429        0.000000        0.00030896        0.66368021        0.23560749
     156          0.120421        0.000000        0.01829070        0.38332213        0.23225072
     157          0.128205        0.000000        0.00118617        0.25475325        0.14784881
     158          0.129182        0.000000        0.00119381        0.18372687        0.13494586
     159          0.137378        0.000000        0.00239617        0.22611567        0.12907582
     160          0.145280        0.000000        0.00091402        0.23023446        0.12453694
     161          0.153560        0.000000        0.01344466        0.11400919        0.12900311
     162          0.156432        0.000000        0.01192184        0.12804198        0.17397359
     163          0.176846        0.000000        0.01472083        0.09242043        0.10960475
     164          0.188846        0.000000        0.00183635        0.27041005        0.11124338
     165          0.197583        0.000000        0.00379548        0.34160639        0.12708170
     166          0.201776        0.000000        0.01280695        0.08970108        0.10334180
     167          0.205226        0.000000        0.00447131        0.31163106        0.15267535
     168          0.205810        0.000000        0.01537207        0.24812840        0.16494282
     169          0.212710        0.000000        0.02661895        0.19787943        0.15354860
     170          0.213449        0.000000        0.00434922        0.29645621        0.15092246
     171          0.220947        0.000000        0.03343103        0.15926164        0.16170682
     172          0.231664        0.000000        0.01441627        0.14893903        0.14504328
     173          0.233880        0.000000        0.04488052        0.12967445        0.15822423
     174          0.236846        0.000000        0.01717706        0.08906386        0.18961129
     175          0.243971        0.000000        0.03728625        0.10938034        0.16359838
     176          0.244114        0.000000        0.02047730        0.12090238        0.19707105
     177          0.249365        0.000000        0.01334286        0.19035391        0.09042474
     178          0.257718        0.000000        0.05720718        0.10944284        0.23401434
     179          0.260118        0.000000        0.03527081        0.07198167        0.35878177
     180          0.263977        0.000000        0.06490164        0.08632758        0.21182842
     181          0.268331        0.000000        0.01938758        0.18892076        0.13617529
     182          0.273860        0.000000        0.02428784        0.41966935        0.14407586
     183          0.278126        0.000000        0.01400195        0.29259829        0.14465955
     184          0.282454        0.000000        0.05733797        0.10308907        0.30966757
     185          0.286437        0.000000        0.05647209        0.21915644        0.16849383
     186          0.290276        0.000000        0.01751288        0.39979705        0.13381776
     187          0.291807        0.000000        0.04208538        0.17816564        0.22151212
     188          0.294358        0.000000        0.02808234        0.26027221        0.17688522
     189          0.295038        0.000000        0.02272364        0.37657206        0.17492206
     190          0.295608        0.000000        0.07345575        0.15269961        0.23098230
     191          0.301628        0.000000        0.01743449        0.36353881        0.18256943
     192          0.306435        0.000000        0.05679932        0.13392755        0.23046186
     193          0.307186        0.000000        0.02084568        0.44158908        0.14577188
     194          0.309225        0.000000        0.03586165        0.13024093        0.34051502
