# Projected DOS for atomic kind H at iteration step i = 0, E(Fermi) =    -0.009195 a.u.
#     MO Eigenvalue [a.u.]      Occupation                 s                 p
       1         -0.901811        1.000000        0.00237661        0.00521278
       2         -0.901801        1.000000        0.00171461        0.00588806
       3         -0.897784        1.000000        0.00148348        0.00465717
       4         -0.897655        1.000000        0.00151408        0.00469597
       5         -0.847786        1.000000        0.00121666        0.00326970
       6         -0.847685        1.000000        0.00121196        0.00326818
       7         -0.845794        1.000000        0.00123439        0.00328103
       8         -0.845775        1.000000        0.00124874        0.00325285
       9         -0.843885        1.000000        0.00109979        0.00294536
      10         -0.843757        1.000000        0.00109709        0.00295564
      11         -0.843250        1.000000        0.00119476        0.00322720
      12         -0.843025        1.000000        0.00119395        0.00322353
      13         -0.694450        1.000000        0.05295931        0.06626461
      14         -0.683858        1.000000        0.05148891        0.06828181
      15         -0.682909        1.000000        0.03829210        0.05827887
      16         -0.681753        1.000000        0.05390281        0.06506538
      17         -0.680067        1.000000        0.04345280        0.05989250
      18         -0.677894        1.000000        0.04318731        0.05919087
      19         -0.594708        1.000000        0.05194373        0.04154383
      20         -0.585415        1.000000        0.06976588        0.04895046
      21         -0.582666        1.000000        0.05580328        0.04096293
      22         -0.582060        1.000000        0.03924180        0.03651071
      23         -0.579510        1.000000        0.04006336        0.03666031
      24         -0.578707        1.000000        0.03295898        0.03339548
      25         -0.578219        1.000000        0.07802065        0.04705949
      26         -0.576511        1.000000        0.05652196        0.04313943
      27         -0.575341        1.000000        0.07750032        0.05031381
      28         -0.574435        1.000000        0.07841152        0.04818241
      29         -0.574372        1.000000        0.06344205        0.04018702
      30         -0.573551        1.000000        0.03943115        0.03287388
      31         -0.464985        1.000000        0.03017986        0.02306454
      32         -0.460529        1.000000        0.02278393        0.02098900
      33         -0.458210        1.000000        0.02471769        0.02056023
      34         -0.458113        1.000000        0.02419100        0.02055702
      35         -0.445350        1.000000        0.09244223        0.02637434
      36         -0.442423        1.000000        0.10412709        0.02723765
      37         -0.434948        1.000000        0.08943456        0.02726101
      38         -0.433555        1.000000        0.08712753        0.02795895
      39         -0.432893        1.000000        0.07811759        0.02898044
      40         -0.432487        1.000000        0.07445191        0.02824780
      41         -0.430503        1.000000        0.10645558        0.02667770
      42         -0.430439        1.000000        0.10232848        0.02738961
      43         -0.404898        1.000000        0.00791144        0.00279561
      44         -0.404636        1.000000        0.00752128        0.00287822
      45         -0.403202        1.000000        0.00636571        0.00266352
      46         -0.402294        1.000000        0.00680052        0.00242619
      47         -0.389353        1.000000        0.10516581        0.01454024
      48         -0.387589        1.000000        0.09708969        0.01418878
      49         -0.385993        1.000000        0.10205952        0.01658123
      50         -0.385455        1.000000        0.09897886        0.01502831
      51         -0.363355        1.000000        0.00063146        0.00679597
      52         -0.362842        1.000000        0.00081897        0.00640987
      53         -0.357185        1.000000        0.14978975        0.00268968
      54         -0.353777        1.000000        0.14476563        0.00323476
      55         -0.344607        1.000000        0.02231972        0.00244995
      56         -0.344531        1.000000        0.02213027        0.00248503
      57         -0.321362        1.000000        0.09432334        0.00945645
      58         -0.316595        1.000000        0.10607496        0.00514999
      59         -0.314609        1.000000        0.10709632        0.00605539
      60         -0.314157        1.000000        0.11324638        0.00496697
      61         -0.309868        1.000000        0.02267151        0.00810387
      62         -0.307466        1.000000        0.00506816        0.00468491
      63         -0.304235        1.000000        0.03969911        0.01544234
      64         -0.294888        1.000000        0.16384609        0.00561147
      65         -0.292840        1.000000        0.23980231        0.00356886
      66         -0.290604        1.000000        0.00994684        0.00533615
      67         -0.287880        1.000000        0.05120371        0.00745169
      68         -0.283954        1.000000        0.05049724        0.01329496
      69         -0.282417        1.000000        0.06329705        0.00316947
      70         -0.281920        1.000000        0.07868628        0.00595511
      71         -0.280658        1.000000        0.17165874        0.00360553
      72         -0.280332        1.000000        0.21174944        0.00350469
      73         -0.277827        1.000000        0.14458701        0.01198928
      74         -0.275155        1.000000        0.23806939        0.00448593
      75         -0.272907        1.000000        0.09680162        0.01641757
      76         -0.272759        1.000000        0.03559498        0.02090891
      77         -0.271529        1.000000        0.07297150        0.01898607
      78         -0.263175        1.000000        0.00738107        0.01362346
      79         -0.261139        1.000000        0.00226388        0.00530892
      80         -0.260550        1.000000        0.00560801        0.01070129
      81         -0.259109        1.000000        0.09238596        0.00629399
      82         -0.258806        1.000000        0.00469320        0.01546419
      83         -0.252105        1.000000        0.19741048        0.00858237
      84         -0.250633        1.000000        0.01521691        0.00425985
      85         -0.248447        1.000000        0.00416845        0.00055475
      86         -0.247295        1.000000        0.22333442        0.00599765
      87         -0.246814        1.000000        0.00902908        0.00575065
      88         -0.244734        1.000000        0.20770887        0.00558104
      89         -0.243655        1.000000        0.14923281        0.01107233
      90         -0.242946        1.000000        0.24079884        0.00583151
      91         -0.242161        1.000000        0.15387758        0.01470971
      92         -0.236032        1.000000        0.08902035        0.00818995
      93         -0.228015        1.000000        0.00217406        0.03803427
      94         -0.224318        1.000000        0.04206449        0.00153971
      95         -0.219682        1.000000        0.04436181        0.00140565
      96         -0.218864        1.000000        0.00562887        0.03171893
      97         -0.217079        1.000000        0.02693559        0.00276611
      98         -0.215585        1.000000        0.01920447        0.00398210
      99         -0.214627        1.000000        0.02603989        0.00762245
     100         -0.214463        1.000000        0.02111546        0.00245566
     101         -0.211671        1.000000        0.00464084        0.00986174
     102         -0.204576        1.000000        0.00080240        0.01009171
     103         -0.202852        1.000000        0.00448113        0.01089531
     104         -0.199397        1.000000        0.00308634        0.01063286
     105         -0.196895        1.000000        0.00163416        0.00426091
     106         -0.195081        1.000000        0.00165899        0.00782464
     107         -0.189152        1.000000        0.00167741        0.00493348
     108         -0.186484        1.000000        0.00102717        0.00796574
     109         -0.185949        1.000000        0.01034987        0.01086886
     110         -0.182206        1.000000        0.05265548        0.00733673
     111         -0.180897        1.000000        0.02552696        0.01336620
     112         -0.180830        1.000000        0.03617557        0.00953347
     113         -0.179920        1.000000        0.03800520        0.00464207
     114         -0.179119        1.000000        0.01901731        0.00995620
     115         -0.176221        1.000000        0.01239825        0.01875793
     116         -0.171611        1.000000        0.16039281        0.00441148
     117         -0.169139        1.000000        0.16376366        0.00533845
     118         -0.167772        1.000000        0.10501454        0.00899540
     119         -0.163800        1.000000        0.19287275        0.00542302
     120         -0.163184        1.000000        0.15777566        0.00503949
     121         -0.162357        1.000000        0.09230474        0.00606169
     122         -0.161556        1.000000        0.21307561        0.00368886
     123         -0.161098        1.000000        0.21176233        0.00315344
     124         -0.156102        1.000000        0.01172030        0.00411533
     125         -0.155733        1.000000        0.01076005        0.00307271
     126         -0.155148        1.000000        0.00951175        0.00265906
     127         -0.154453        1.000000        0.01048277        0.00304564
     128         -0.145118        1.000000        0.03757753        0.01899732
     129         -0.137941        1.000000        0.05277591        0.00511804
     130         -0.136010        1.000000        0.01689065        0.04672439
     131         -0.135452        1.000000        0.04208024        0.01448047
     132         -0.134823        1.000000        0.05269137        0.00486580
     133         -0.130509        1.000000        0.02775003        0.01582230
     134         -0.117031        1.000000        0.00887349        0.03171434
     135         -0.111572        1.000000        0.00007818        0.03635874
     136         -0.107885        1.000000        0.00007755        0.06685759
     137         -0.102643        1.000000        0.00005466        0.01724477
     138         -0.096755        1.000000        0.00008403        0.02330575
     139         -0.095481        1.000000        0.00010385        0.02484735
     140         -0.089985        1.000000        0.00002998        0.05190119
     141         -0.086616        1.000000        0.00024417        0.03231597
     142         -0.081685        1.000000        0.00009944        0.02962571
     143         -0.081566        1.000000        0.00005665        0.04073449
     144         -0.009195        1.000000        0.00787143        0.03448369
     145          0.038895        0.000000        0.00276580        0.01648763
     146          0.048652        0.000000        0.00014909        0.02056982
     147          0.048753        0.000000        0.00018008        0.01358769
     148          0.056174        0.000000        0.00197044        0.01649621
     149          0.074727        0.000000        0.00751208        0.03546467
     150          0.077288        0.000000        0.00243323        0.03704971
     151          0.081942        0.000000        0.00136686        0.02668375
     152          0.107111        0.000000        0.00004508        0.07617517
     153          0.107775        0.000000        0.00007117        0.08865887
     154          0.113504        0.000000        0.00011964        0.06739687
     155          0.114429        0.000000        0.00025262        0.07940033
     156          0.120421        0.000000        0.01386488        0.05473866
     157          0.128205        0.000000        0.00228570        0.02229155
     158          0.129182        0.000000        0.00052598        0.01401712
     159          0.137378        0.000000        0.00132591        0.01998200
     160          0.145280        0.000000        0.00173357        0.01621899
     161          0.153560        0.000000        0.01818769        0.03977810
     162          0.156432        0.000000        0.02768523        0.05253377
     163          0.176846        0.000000        0.05078895        0.10265336
     164          0.188846        0.000000        0.00207357        0.02700570
     165          0.197583        0.000000        0.00377470        0.04950892
     166          0.201776        0.000000        0.01400228        0.06038522
     167          0.205226        0.000000        0.00443663        0.03903737
     168          0.205810        0.000000        0.02117444        0.07914889
     169          0.212710        0.000000        0.02622343        0.11191384
     170          0.213449        0.000000        0.00364108        0.03624784
     171          0.220947        0.000000        0.03776565        0.13433621
     172          0.231664        0.000000        0.03524565        0.17685578
     173          0.233880        0.000000        0.03995729        0.17313271
     174          0.236846        0.000000        0.06296615        0.22231316
     175          0.243971        0.000000        0.07026475        0.31274078
     176          0.244114        0.000000        0.09191834        0.34148550
     177          0.249365        0.000000        0.07264920        0.30528635
     178          0.257718        0.000000        0.07477281        0.26511619
     179          0.260118        0.000000        0.02588893        0.17505288
     180          0.263977        0.000000        0.05497324        0.21931293
     181          0.268331        0.000000        0.01770295        0.12196827
     182          0.273860        0.000000        0.01465528        0.11917339
     183          0.278126        0.000000        0.02532172        0.12902936
     184          0.282454        0.000000        0.04836170        0.25659332
     185          0.286437        0.000000        0.05623312        0.31185860
     186          0.290276        0.000000        0.02228505        0.15560399
     187          0.291807        0.000000        0.06278065        0.32408558
     188          0.294358        0.000000        0.05225130        0.20614425
     189          0.295038        0.000000        0.04870656        0.22080408
     190          0.295608        0.000000        0.08112562        0.30152363
     191          0.301628        0.000000        0.05548990        0.22381633
     192          0.306435        0.000000        0.04736415        0.17714696
     193          0.307186        0.000000        0.01820407        0.11934921
     194          0.309225        0.000000        0.07094805        0.22168267
