# Projected DOS for atomic kind O at iteration step i = 0, E(Fermi) =    -0.009195 a.u.
#     MO Eigenvalue [a.u.]      Occupation                 s                 p                 d
       1         -0.901811        1.000000        0.57105277        0.05704772        0.00167633
       2         -0.901801        1.000000        0.57001899        0.05720783        0.00166725
       3         -0.897784        1.000000        0.56986487        0.05692943        0.00170834
       4         -0.897655        1.000000        0.57008813        0.05688577        0.00170518
       5         -0.847786        1.000000        0.59257294        0.01186238        0.00366866
       6         -0.847685        1.000000        0.59251249        0.01184186        0.00367749
       7         -0.845794        1.000000        0.59193259        0.01210920        0.00368514
       8         -0.845775        1.000000        0.59191678        0.01212320        0.00369469
       9         -0.843885        1.000000        0.59201483        0.01160525        0.00364039
      10         -0.843757        1.000000        0.59209141        0.01160616        0.00364181
      11         -0.843250        1.000000        0.59265178        0.01212020        0.00365773
      12         -0.843025        1.000000        0.59279204        0.01212871        0.00365815
      13         -0.694450        1.000000        0.00171280        0.00552485        0.00032714
      14         -0.683858        1.000000        0.00173900        0.00652547        0.00032434
      15         -0.682909        1.000000        0.00129002        0.00506854        0.00027364
      16         -0.681753        1.000000        0.00163367        0.00499983        0.00047838
      17         -0.680067        1.000000        0.00120302        0.00527077        0.00033821
      18         -0.677894        1.000000        0.00131731        0.00442267        0.00046400
      19         -0.594708        1.000000        0.00212789        0.01879602        0.00047974
      20         -0.585415        1.000000        0.00052979        0.00872002        0.00015046
      21         -0.582666        1.000000        0.00133920        0.02249488        0.00024253
      22         -0.582060        1.000000        0.00200577        0.02957870        0.00038236
      23         -0.579510        1.000000        0.00262607        0.03352200        0.00033608
      24         -0.578707        1.000000        0.00271199        0.03238053        0.00061118
      25         -0.578219        1.000000        0.00155189        0.00509853        0.00019543
      26         -0.576511        1.000000        0.00184119        0.00793102        0.00134798
      27         -0.575341        1.000000        0.00056833        0.00301334        0.00039508
      28         -0.574435        1.000000        0.00097873        0.00156436        0.00033464
      29         -0.574372        1.000000        0.00205290        0.00517724        0.00099770
      30         -0.573551        1.000000        0.00254236        0.01187089        0.00173810
      31         -0.464985        1.000000        0.00433874        0.20893900        0.00189851
      32         -0.460529        1.000000        0.00417796        0.23314204        0.00219953
      33         -0.458210        1.000000        0.00423156        0.25414791        0.00228796
      34         -0.458113        1.000000        0.00428801        0.25489926        0.00229837
      35         -0.445350        1.000000        0.00194248        0.07875316        0.00077084
      36         -0.442423        1.000000        0.00072561        0.06062804        0.00031414
      37         -0.434948        1.000000        0.00177269        0.03939161        0.00162827
      38         -0.433555        1.000000        0.00207190        0.02704041        0.00179722
      39         -0.432893        1.000000        0.00215381        0.00981491        0.00275882
      40         -0.432487        1.000000        0.00197867        0.00940555        0.00304887
      41         -0.430503        1.000000        0.00210916        0.00554998        0.00108079
      42         -0.430439        1.000000        0.00239478        0.00540657        0.00127366
      43         -0.404898        1.000000        0.00686433        0.57156105        0.00805794
      44         -0.404636        1.000000        0.00654868        0.57237864        0.00822136
      45         -0.403202        1.000000        0.00640373        0.58168049        0.00849122
      46         -0.402294        1.000000        0.00644713        0.58201633        0.00847401
      47         -0.389353        1.000000        0.00383101        0.23880261        0.00313211
      48         -0.387589        1.000000        0.00358801        0.25999011        0.00363443
      49         -0.385993        1.000000        0.00348639        0.25401003        0.00346171
      50         -0.385455        1.000000        0.00351433        0.25604023        0.00362577
      51         -0.363355        1.000000        0.00003413        0.60706885        0.00063918
      52         -0.362842        1.000000        0.00001608        0.60985244        0.00064228
      53         -0.357185        1.000000        0.00570834        0.11730142        0.00421080
      54         -0.353777        1.000000        0.00592465        0.12366989        0.00433683
      55         -0.344607        1.000000        0.00003382        0.62725993        0.00091131
      56         -0.344531        1.000000        0.00003779        0.62695086        0.00091377
      57         -0.321362        1.000000        0.00182590        0.19785430        0.00676559
      58         -0.316595        1.000000        0.00203869        0.22163080        0.00789712
      59         -0.314609        1.000000        0.00139874        0.20911356        0.00786029
      60         -0.314157        1.000000        0.00119201        0.20395201        0.00790710
      61         -0.309868        1.000000        0.03201249        0.40523909        0.00801579
      62         -0.307466        1.000000        0.05041313        0.56369860        0.00816416
      63         -0.304235        1.000000        0.02165806        0.29983052        0.00325215
      64         -0.294888        1.000000        0.00390352        0.17320117        0.00254886
      65         -0.292840        1.000000        0.00440576        0.03536202        0.00212958
      66         -0.290604        1.000000        0.00232694        0.59676356        0.00594874
      67         -0.287880        1.000000        0.00060628        0.35374027        0.00409297
      68         -0.283954        1.000000        0.01462324        0.09054828        0.00133675
      69         -0.282417        1.000000        0.07844362        0.47648558        0.00363292
      70         -0.281920        1.000000        0.05211562        0.32177826        0.00257960
      71         -0.280658        1.000000        0.03178730        0.18786552        0.00253994
      72         -0.280332        1.000000        0.01353261        0.10107184        0.00223017
      73         -0.277827        1.000000        0.00345924        0.02688472        0.00138112
      74         -0.275155        1.000000        0.00024664        0.02580676        0.00059944
      75         -0.272907        1.000000        0.00224625        0.04012524        0.00060710
      76         -0.272759        1.000000        0.00273885        0.05121568        0.00090582
      77         -0.271529        1.000000        0.00246361        0.02863518        0.00046435
      78         -0.263175        1.000000        0.00111862        0.24509240        0.00211813
      79         -0.261139        1.000000        0.00016835        0.59488945        0.00546503
      80         -0.260550        1.000000        0.00046978        0.43587182        0.00397813
      81         -0.259109        1.000000        0.00072893        0.02967568        0.00039233
      82         -0.258806        1.000000        0.00004662        0.18652447        0.00120324
      83         -0.252105        1.000000        0.00128298        0.02081435        0.00030262
      84         -0.250633        1.000000        0.00190445        0.02228496        0.00053624
      85         -0.248447        1.000000        0.00012930        0.00487899        0.00007252
      86         -0.247295        1.000000        0.00048158        0.02991812        0.00013270
      87         -0.246814        1.000000        0.00080655        0.01985557        0.00035815
      88         -0.244734        1.000000        0.00046995        0.03037051        0.00023666
      89         -0.243655        1.000000        0.00092484        0.03734847        0.00079244
      90         -0.242946        1.000000        0.00016611        0.01145896        0.00016909
      91         -0.242161        1.000000        0.00015705        0.03712721        0.00089566
      92         -0.236032        1.000000        0.00246457        0.05114421        0.00141118
      93         -0.228015        1.000000        0.00065000        0.20190240        0.00397080
      94         -0.224318        1.000000        0.04890428        0.14341084        0.00859791
      95         -0.219682        1.000000        0.04734239        0.11410475        0.00919676
      96         -0.218864        1.000000        0.00073708        0.21099310        0.00316705
      97         -0.217079        1.000000        0.01340473        0.24841501        0.00806150
      98         -0.215585        1.000000        0.00739295        0.30216654        0.00760249
      99         -0.214627        1.000000        0.00478069        0.25686012        0.00675994
     100         -0.214463        1.000000        0.00849598        0.27391350        0.00777048
     101         -0.211671        1.000000        0.00088553        0.53808756        0.00661470
     102         -0.204576        1.000000        0.00057833        0.59553041        0.00549415
     103         -0.202852        1.000000        0.00048803        0.45307894        0.00513730
     104         -0.199397        1.000000        0.00146748        0.47549966        0.00522869
     105         -0.196895        1.000000        0.00047115        0.72660488        0.00527616
     106         -0.195081        1.000000        0.00027910        0.65861566        0.00424527
     107         -0.189152        1.000000        0.00062756        0.71165804        0.00359116
     108         -0.186484        1.000000        0.00046873        0.67316241        0.00227923
     109         -0.185949        1.000000        0.00191863        0.45367708        0.00235122
     110         -0.182206        1.000000        0.01291726        0.49309147        0.00112660
     111         -0.180897        1.000000        0.00821030        0.38798125        0.00109425
     112         -0.180830        1.000000        0.01111770        0.47819578        0.00128509
     113         -0.179920        1.000000        0.01508901        0.60513714        0.00140368
     114         -0.179119        1.000000        0.00956736        0.48419382        0.00104496
     115         -0.176221        1.000000        0.00113480        0.30277878        0.00047251
     116         -0.171611        1.000000        0.00370055        0.15719591        0.00151572
     117         -0.169139        1.000000        0.00395271        0.07846470        0.00263421
     118         -0.167772        1.000000        0.00626203        0.07693353        0.00528986
     119         -0.163800        1.000000        0.00107050        0.05334412        0.00149675
     120         -0.163184        1.000000        0.00500012        0.05396851        0.00415091
     121         -0.162357        1.000000        0.01125162        0.03263642        0.00859217
     122         -0.161556        1.000000        0.00077716        0.01498364        0.00100300
     123         -0.161098        1.000000        0.00095680        0.01625065        0.00084232
     124         -0.156102        1.000000        0.01835264        0.60348140        0.00308128
     125         -0.155733        1.000000        0.02017741        0.62933070        0.00299466
     126         -0.155148        1.000000        0.01960633        0.60772451        0.00323264
     127         -0.154453        1.000000        0.02013017        0.61084072        0.00312948
     128         -0.145118        1.000000        0.00651610        0.19378539        0.00298655
     129         -0.137941        1.000000        0.00690860        0.20258228        0.00385953
     130         -0.136010        1.000000        0.00218843        0.06716392        0.00152466
     131         -0.135452        1.000000        0.00581457        0.16137634        0.00366960
     132         -0.134823        1.000000        0.00647205        0.18163025        0.00408612
     133         -0.130509        1.000000        0.00189739        0.12402772        0.00236207
     134         -0.117031        1.000000        0.00025058        0.02225443        0.00044990
     135         -0.111572        1.000000        0.00004373        0.06604512        0.00160564
     136         -0.107885        1.000000        0.00006589        0.03449077        0.00027179
     137         -0.102643        1.000000        0.00003168        0.05384678        0.00195155
     138         -0.096755        1.000000        0.00003444        0.07834170        0.00186275
     139         -0.095481        1.000000        0.00007182        0.03610684        0.00149454
     140         -0.089985        1.000000        0.00003198        0.03122545        0.00026252
     141         -0.086616        1.000000        0.00008370        0.01571941        0.00174068
     142         -0.081685        1.000000        0.00002700        0.02781724        0.00036095
     143         -0.081566        1.000000        0.00004107        0.01272158        0.00019670
     144         -0.009195        1.000000        0.00044045        0.02887265        0.00491995
     145          0.038895        0.000000        0.00061423        0.04667330        0.01996827
     146          0.048652        0.000000        0.00003417        0.05241596        0.02474502
     147          0.048753        0.000000        0.00005236        0.06122079        0.02683048
     148          0.056174        0.000000        0.00027411        0.06544215        0.02189741
     149          0.074727        0.000000        0.00033195        0.02517167        0.00337493
     150          0.077288        0.000000        0.00101278        0.03317136        0.00330679
     151          0.081942        0.000000        0.00027288        0.08176392        0.00255066
     152          0.107111        0.000000        0.00006796        0.00081479        0.00081278
     153          0.107775        0.000000        0.00014170        0.00988213        0.00177436
     154          0.113504        0.000000        0.00007594        0.00919516        0.00346683
     155          0.114429        0.000000        0.00007738        0.00663974        0.00095497
     156          0.120421        0.000000        0.00515280        0.00833278        0.00101927
     157          0.128205        0.000000        0.00214213        0.07550872        0.04694969
     158          0.129182        0.000000        0.00031342        0.08569482        0.05904071
     159          0.137378        0.000000        0.00276706        0.05076714        0.05566009
     160          0.145280        0.000000        0.00125353        0.05813245        0.05612908
     161          0.153560        0.000000        0.04643207        0.02294441        0.00541506
     162          0.156432        0.000000        0.00812458        0.01674744        0.00828056
     163          0.176846        0.000000        0.15387814        0.02325917        0.00554434
     164          0.188846        0.000000        0.00084450        0.21898984        0.01400569
     165          0.197583        0.000000        0.01231828        0.12856221        0.01521128
     166          0.201776        0.000000        0.12862307        0.04225947        0.00410233
     167          0.205226        0.000000        0.00300412        0.04655843        0.04754078
     168          0.205810        0.000000        0.03323890        0.05234283        0.03223026
     169          0.212710        0.000000        0.04244587        0.04286400        0.03249037
     170          0.213449        0.000000        0.00366940        0.03483703        0.05103485
     171          0.220947        0.000000        0.05971648        0.04900749        0.02302055
     172          0.231664        0.000000        0.00584561        0.16800554        0.00929418
     173          0.233880        0.000000        0.08094721        0.04881528        0.01446164
     174          0.236846        0.000000        0.11980146        0.02202503        0.00321544
     175          0.243971        0.000000        0.02168520        0.08014199        0.00723992
     176          0.244114        0.000000        0.03817305        0.01765963        0.00445909
     177          0.249365        0.000000        0.06406174        0.03913319        0.00523032
     178          0.257718        0.000000        0.06230499        0.02587076        0.01098804
     179          0.260118        0.000000        0.06465468        0.02005364        0.00498886
     180          0.263977        0.000000        0.08001267        0.04345995        0.01573382
     181          0.268331        0.000000        0.02447863        0.12974902        0.01936276
     182          0.273860        0.000000        0.02323286        0.03031791        0.01958866
     183          0.278126        0.000000        0.00343223        0.09735798        0.01880689
     184          0.282454        0.000000        0.03310342        0.01341950        0.00656339
     185          0.286437        0.000000        0.01567498        0.02249885        0.00917651
     186          0.290276        0.000000        0.01751687        0.05222519        0.01382295
     187          0.291807        0.000000        0.02434065        0.02069341        0.00696520
     188          0.294358        0.000000        0.03536191        0.03283057        0.01427324
     189          0.295038        0.000000        0.01024286        0.01377658        0.01593810
     190          0.295608        0.000000        0.02339118        0.00961707        0.00883280
     191          0.301628        0.000000        0.00516297        0.02181992        0.01466557
     192          0.306435        0.000000        0.07738914        0.01785093        0.02208423
     193          0.307186        0.000000        0.02332362        0.02365475        0.01977326
     194          0.309225        0.000000        0.01975775        0.02321165        0.00621204
